
                                 *****************
                                 * O   R   C   A *
                                 *****************

                                            #,                                       
                                            ###                                      
                                            ####                                     
                                            #####                                    
                                            ######                                   
                                           ########,                                 
                                     ,,################,,,,,                         
                               ,,#################################,,                 
                          ,,##########################################,,             
                       ,#########################################, ''#####,          
                    ,#############################################,,   '####,        
                  ,##################################################,,,,####,       
                ,###########''''           ''''###############################       
              ,#####''   ,,,,##########,,,,          '''####'''          '####       
            ,##' ,,,,###########################,,,                        '##       
           ' ,,###''''                  '''############,,,                           
         ,,##''                                '''############,,,,        ,,,,,,###''
      ,#''                                            '''#######################'''  
     '                                                          ''''####''''         
             ,#######,   #######,   ,#######,      ##                                
            ,#'     '#,  ##    ##  ,#'     '#,    #''#        ######   ,####,        
            ##       ##  ##   ,#'  ##            #'  '#       #        #'  '#        
            ##       ##  #######   ##           ,######,      #####,   #    #        
            '#,     ,#'  ##    ##  '#,     ,#' ,#      #,         ##   #,  ,#        
             '#######'   ##     ##  '#######'  #'      '#     #####' # '####'        



                  #######################################################
                  #                        -***-                        #
                  #          Department of theory and spectroscopy      #
                  #    Directorship and core code : Frank Neese         #
                  #        Max Planck Institute fuer Kohlenforschung    #
                  #                Kaiser Wilhelm Platz 1               #
                  #                 D-45470 Muelheim/Ruhr               #
                  #                      Germany                        #
                  #                                                     #
                  #                  All rights reserved                #
                  #                        -***-                        #
                  #######################################################


                         Program Version 5.0.4 -  RELEASE  -


 With contributions from (in alphabetic order):
   Daniel Aravena         : Magnetic Suceptibility
   Michael Atanasov       : Ab Initio Ligand Field Theory (pilot matlab implementation)
   Alexander A. Auer      : GIAO ZORA, VPT2 properties, NMR spectrum
   Ute Becker             : Parallelization
   Giovanni Bistoni       : ED, misc. LED, open-shell LED, HFLD
   Martin Brehm           : Molecular dynamics
   Dmytro Bykov           : SCF Hessian
   Vijay G. Chilkuri      : MRCI spin determinant printing, contributions to CSF-ICE
   Dipayan Datta          : RHF DLPNO-CCSD density
   Achintya Kumar Dutta   : EOM-CC, STEOM-CC
   Dmitry Ganyushin       : Spin-Orbit,Spin-Spin,Magnetic field MRCI
   Miquel Garcia          : C-PCM and meta-GGA Hessian, CC/C-PCM, Gaussian charge scheme
   Yang Guo               : DLPNO-NEVPT2, F12-NEVPT2, CIM, IAO-localization
   Andreas Hansen         : Spin unrestricted coupled pair/coupled cluster methods
   Benjamin Helmich-Paris : MC-RPA, TRAH-SCF, COSX integrals
   Lee Huntington         : MR-EOM, pCC
   Robert Izsak           : Overlap fitted RIJCOSX, COSX-SCS-MP3, EOM
   Marcus Kettner         : VPT2
   Christian Kollmar      : KDIIS, OOCD, Brueckner-CCSD(T), CCSD density, CASPT2, CASPT2-K
   Simone Kossmann        : Meta GGA functionals, TD-DFT gradient, OOMP2, MP2 Hessian
   Martin Krupicka        : Initial AUTO-CI
   Lucas Lang             : DCDCAS
   Marvin Lechner         : AUTO-CI (C++ implementation), FIC-MRCC
   Dagmar Lenk            : GEPOL surface, SMD
   Dimitrios Liakos       : Extrapolation schemes; Compound Job, initial MDCI parallelization
   Dimitrios Manganas     : Further ROCIS development; embedding schemes
   Dimitrios Pantazis     : SARC Basis sets
   Anastasios Papadopoulos: AUTO-CI, single reference methods and gradients
   Taras Petrenko         : DFT Hessian,TD-DFT gradient, ASA, ECA, R-Raman, ABS, FL, XAS/XES, NRVS
   Peter Pinski           : DLPNO-MP2, DLPNO-MP2 Gradient
   Christoph Reimann      : Effective Core Potentials
   Marius Retegan         : Local ZFS, SOC
   Christoph Riplinger    : Optimizer, TS searches, QM/MM, DLPNO-CCSD(T), (RO)-DLPNO pert. Triples
   Tobias Risthaus        : Range-separated hybrids, TD-DFT gradient, RPA, STAB
   Michael Roemelt        : Original ROCIS implementation
   Masaaki Saitow         : Open-shell DLPNO-CCSD energy and density
   Barbara Sandhoefer     : DKH picture change effects
   Avijit Sen             : IP-ROCIS
   Kantharuban Sivalingam : CASSCF convergence, NEVPT2, FIC-MRCI
   Bernardo de Souza      : ESD, SOC TD-DFT
   Georgi Stoychev        : AutoAux, RI-MP2 NMR, DLPNO-MP2 response
   Willem Van den Heuvel  : Paramagnetic NMR
   Boris Wezisla          : Elementary symmetry handling
   Frank Wennmohs         : Technical directorship


 We gratefully acknowledge several colleagues who have allowed us to
 interface, adapt or use parts of their codes:
   Stefan Grimme, W. Hujo, H. Kruse, P. Pracht,  : VdW corrections, initial TS optimization,
                  C. Bannwarth, S. Ehlert          DFT functionals, gCP, sTDA/sTD-DF
   Ed Valeev, F. Pavosevic, A. Kumar             : LibInt (2-el integral package), F12 methods
   Garnet Chan, S. Sharma, J. Yang, R. Olivares  : DMRG
   Ulf Ekstrom                                   : XCFun DFT Library
   Mihaly Kallay                                 : mrcc  (arbitrary order and MRCC methods)
   Jiri Pittner, Ondrej Demel                    : Mk-CCSD
   Frank Weinhold                                : gennbo (NPA and NBO analysis)
   Christopher J. Cramer and Donald G. Truhlar   : smd solvation model
   Lars Goerigk                                  : TD-DFT with DH, B97 family of functionals
   V. Asgeirsson, H. Jonsson                     : NEB implementation
   FAccTs GmbH                                   : IRC, NEB, NEB-TS, DLPNO-Multilevel, CI-OPT
                                                   MM, QMMM, 2- and 3-layer-ONIOM, Crystal-QMMM,
                                                   LR-CPCM, SF, NACMEs, symmetry and pop. for TD-DFT,
                                                   nearIR, NL-DFT gradient (VV10), updates on ESD,
                                                   ML-optimized integration grids
   S Lehtola, MJT Oliveira, MAL Marques          : LibXC Library
   Liviu Ungur et al                             : ANISO software


 Your calculation uses the libint2 library for the computation of 2-el integrals
 For citations please refer to: http://libint.valeyev.net

 Your ORCA version has been built with support for libXC version: 5.1.0
 For citations please refer to: https://tddft.org/programs/libxc/

 This ORCA versions uses:
   CBLAS   interface :  Fast vector & matrix operations
   LAPACKE interface :  Fast linear algebra routines
   SCALAPACK package :  Parallel linear algebra routines
   Shared memory     :  Shared parallel matrices
   BLAS/LAPACK       :  OpenBLAS 0.3.15  USE64BITINT DYNAMIC_ARCH NO_AFFINITY Prescott SINGLE_THREADED
        Core in use  :  Prescott
   Copyright (c) 2011-2014, The OpenBLAS Project


================================================================================

----- Orbital basis set information -----
Your calculation utilizes the basis: def2-TZVP
   F. Weigend and R. Ahlrichs, Phys. Chem. Chem. Phys. 7, 3297 (2005).

----- AuxJ basis set information -----
Your calculation utilizes the auxiliary basis: def2/J
   F. Weigend, Phys. Chem. Chem. Phys. 8, 1057 (2006).

================================================================================
                                        WARNINGS
                       Please study these warnings very carefully!
================================================================================

WARNING: Old DensityContainer found on disk!
         Will remove this file - 
         If you want to keep old densities, please start your calculation with a different basename. 


INFO   : the flag for use of the SHARK integral package has been found!

================================================================================
                                       INPUT FILE
================================================================================
NAME = orca.inp
|  1> ! PBE def2-TZVP TightSCF EnGrad 
|  2> %pal nprocs 8 end 
|  3> *xyz 0 1 
|  4> C   3.2329406642916143 1.963063165248208 -0.06042900579323485
|  5> N   2.4011030782262113 0.8341576061207372 0.10951583458760626
|  6> C   1.1114513511568425 0.8147926213220293 -0.22379878992846675
|  7> O   0.5734773732255571 1.6601016909602675 -0.9471516424850658
|  8> C   0.3030463527692228 -0.25475390355021355 0.3435342379570184
|  9> C   0.9507090511314417 -1.687391485438238 0.33703234858277786
| 10> N   -0.9037775609872591 -0.3826578679428958 -0.4066655148493564
| 11> C   -2.07449381683962 -0.7835702742743227 0.20612491476188732
| 12> C   -3.327231655867818 -0.5648368942746177 -0.5560387672896546
| 13> O   -2.0388413719614307 -1.3488099443323363 1.3061563862497916
| 14> H   3.2150858729014358 2.313999827827406 -1.1033244665335518
| 15> H   2.9199252141095413 2.8573471281941933 0.5477543757186449
| 16> H   4.280705671481325 1.6965585423057519 0.166783207343343
| 17> H   2.6128728506497976 0.21030681062420584 0.9808405009118076
| 18> H   -0.0005074623044411628 -0.1330445581422158 1.4059777600921461
| 19> H   1.1668871625588872 -1.9489840077132297 -0.6796705249364973
| 20> H   1.8133192863040446 -1.8024504211370185 1.0289348020679945
| 21> H   0.22624600842250409 -2.419178759179462 0.6924853025048141
| 22> H   -0.8982930958853336 0.15290297247043683 -1.243659169039562
| 23> H   -3.9714054626350888 -1.4691140764179687 -0.47871510380330934
| 24> H   -3.140571087411871 -0.6510068467793146 -1.6061215710224588
| 25> H   -3.972551787291007 0.21922632161115144 -0.2288030312727066
| 26> *
| 27> 
| 28>                          ****END OF INPUT****
================================================================================

                     *******************************
                     * Energy+Gradient Calculation *
                     *******************************

---------------------------------
CARTESIAN COORDINATES (ANGSTROEM)
---------------------------------
  C      3.232941    1.963063   -0.060429
  N      2.401103    0.834158    0.109516
  C      1.111451    0.814793   -0.223799
  O      0.573477    1.660102   -0.947152
  C      0.303046   -0.254754    0.343534
  C      0.950709   -1.687391    0.337032
  N     -0.903778   -0.382658   -0.406666
  C     -2.074494   -0.783570    0.206125
  C     -3.327232   -0.564837   -0.556039
  O     -2.038841   -1.348810    1.306156
  H      3.215086    2.314000   -1.103324
  H      2.919925    2.857347    0.547754
  H      4.280706    1.696559    0.166783
  H      2.612873    0.210307    0.980841
  H     -0.000507   -0.133045    1.405978
  H      1.166887   -1.948984   -0.679671
  H      1.813319   -1.802450    1.028935
  H      0.226246   -2.419179    0.692485
  H     -0.898293    0.152903   -1.243659
  H     -3.971405   -1.469114   -0.478715
  H     -3.140571   -0.651007   -1.606122
  H     -3.972552    0.219226   -0.228803

----------------------------
CARTESIAN COORDINATES (A.U.)
----------------------------
  NO LB      ZA    FRAG     MASS         X           Y           Z
   0 C     6.0000    0    12.011    6.109372    3.709652   -0.114194
   1 N     7.0000    0    14.007    4.537427    1.576329    0.206955
   2 C     6.0000    0    12.011    2.100339    1.539735   -0.422918
   3 O     8.0000    0    15.999    1.083715    3.137138   -1.789857
   4 C     6.0000    0    12.011    0.572675   -0.481415    0.649186
   5 C     6.0000    0    12.011    1.796580   -3.188708    0.636899
   6 N     7.0000    0    14.007   -1.707892   -0.723119   -0.768486
   7 C     6.0000    0    12.011   -3.920225   -1.480733    0.389520
   8 C     6.0000    0    12.011   -6.287557   -1.067387   -1.050761
   9 O     8.0000    0    15.999   -3.852852   -2.548881    2.468278
  10 H     1.0000    0     1.008    6.075632    4.372826   -2.084981
  11 H     1.0000    0     1.008    5.517859    5.399604    1.035106
  12 H     1.0000    0     1.008    8.089361    3.206031    0.315175
  13 H     1.0000    0     1.008    4.937614    0.397422    1.853520
  14 H     1.0000    0     1.008   -0.000959   -0.251418    2.656913
  15 H     1.0000    0     1.008    2.205097   -3.683046   -1.284391
  16 H     1.0000    0     1.008    3.426677   -3.406138    1.944405
  17 H     1.0000    0     1.008    0.427543   -4.571585    1.308608
  18 H     1.0000    0     1.008   -1.697528    0.288945   -2.350175
  19 H     1.0000    0     1.008   -7.504869   -2.776223   -0.904640
  20 H     1.0000    0     1.008   -5.934819   -1.230225   -3.035130
  21 H     1.0000    0     1.008   -7.507035    0.414278   -0.432375

--------------------------------
INTERNAL COORDINATES (ANGSTROEM)
--------------------------------
 C      0   0   0     0.000000000000     0.00000000     0.00000000
 N      1   0   0     1.412537709158     0.00000000     0.00000000
 C      2   1   0     1.332169365616   123.47792335     0.00000000
 O      3   2   1     1.235800458588   123.91343923    15.03747862
 C      3   2   1     1.455786788927   116.79208442   196.89406814
 C      5   3   2     1.572246700252   116.04573026   316.57079923
 N      5   3   2     1.426738606765   109.30880486   197.67170471
 C      7   5   3     1.380876323170   120.65149535   212.00866724
 C      8   7   5     1.482595650573   116.44899464   165.21331547
 O      8   7   5     1.237269663290   120.18229392   341.99055009
 H      1   2   3     1.100502738184   111.05817396   304.99224214
 H      1   2   3     1.125881656295   113.95949520    62.96586405
 H      1   2   3     1.104745044858   109.93662988   187.14926907
 H      2   1   3     1.092356592738   115.99104641   214.11936498
 H      5   3   2     1.111640374011   116.33763350    77.26495788
 H      6   5   3     1.071843438471   108.02259893   300.85726129
 H      6   5   3     1.111784143459   114.28895542    69.04289521
 H      6   5   3     1.089360416351   109.68257211   185.46868317
 H      7   5   3     0.993687008216   112.94914343     9.85930655
 H      9   8   7     1.112949264075   109.47984265   136.16888788
 H      9   8   7     1.070019309745   110.19487590    31.84922474
 H      9   8   7     1.066900382159   117.50510334   253.17593134

---------------------------
INTERNAL COORDINATES (A.U.)
---------------------------
 C      0   0   0     0.000000000000     0.00000000     0.00000000
 N      1   0   0     2.669309424144     0.00000000     0.00000000
 C      2   1   0     2.517435265014   123.47792335     0.00000000
 O      3   2   1     2.335324422905   123.91343923    15.03747862
 C      3   2   1     2.751038340452   116.79208442   196.89406814
 C      5   3   2     2.971115678438   116.04573026   316.57079923
 N      5   3   2     2.696145231477   109.30880486   197.67170471
 C      7   5   3     2.609478075607   120.65149535   212.00866724
 C      8   7   5     2.801699746925   116.44899464   165.21331547
 O      8   7   5     2.338100817426   120.18229392   341.99055009
 H      1   2   3     2.079648784798   111.05817396   304.99224214
 H      1   2   3     2.127607989604   113.95949520    62.96586405
 H      1   2   3     2.087665582589   109.93662988   187.14926907
 H      2   1   3     2.064254800859   115.99104641   214.11936498
 H      5   3   2     2.100695866291   116.33763350    77.26495788
 H      6   5   3     2.025490557150   108.02259893   300.85726129
 H      6   5   3     2.100967551174   114.28895542    69.04289521
 H      6   5   3     2.058592848038   109.68257211   185.46868317
 H      7   5   3     1.877796308363   112.94914343     9.85930655
 H      9   8   7     2.103169310051   109.47984265   136.16888788
 H      9   8   7     2.022043453425   110.19487590    31.84922474
 H      9   8   7     2.016149534457   117.50510334   253.17593134

---------------------
BASIS SET INFORMATION
---------------------
There are 4 groups of distinct atoms

 Group   1 Type C   : 11s6p2d1f contracted to 5s3p2d1f pattern {62111/411/11/1}
 Group   2 Type N   : 11s6p2d1f contracted to 5s3p2d1f pattern {62111/411/11/1}
 Group   3 Type O   : 11s6p2d1f contracted to 5s3p2d1f pattern {62111/411/11/1}
 Group   4 Type H   : 5s1p contracted to 3s1p pattern {311/1}

Atom   0C    basis set group =>   1
Atom   1N    basis set group =>   2
Atom   2C    basis set group =>   1
Atom   3O    basis set group =>   3
Atom   4C    basis set group =>   1
Atom   5C    basis set group =>   1
Atom   6N    basis set group =>   2
Atom   7C    basis set group =>   1
Atom   8C    basis set group =>   1
Atom   9O    basis set group =>   3
Atom  10H    basis set group =>   4
Atom  11H    basis set group =>   4
Atom  12H    basis set group =>   4
Atom  13H    basis set group =>   4
Atom  14H    basis set group =>   4
Atom  15H    basis set group =>   4
Atom  16H    basis set group =>   4
Atom  17H    basis set group =>   4
Atom  18H    basis set group =>   4
Atom  19H    basis set group =>   4
Atom  20H    basis set group =>   4
Atom  21H    basis set group =>   4
---------------------------------
AUXILIARY/J BASIS SET INFORMATION
---------------------------------
There are 4 groups of distinct atoms

 Group   1 Type C   : 12s5p4d2f1g contracted to 6s4p3d1f1g pattern {711111/2111/211/2/1}
 Group   2 Type N   : 12s5p4d2f1g contracted to 6s4p3d1f1g pattern {711111/2111/211/2/1}
 Group   3 Type O   : 12s5p4d2f1g contracted to 6s4p3d1f1g pattern {711111/2111/211/2/1}
 Group   4 Type H   : 5s2p1d contracted to 3s1p1d pattern {311/2/1}

Atom   0C    basis set group =>   1
Atom   1N    basis set group =>   2
Atom   2C    basis set group =>   1
Atom   3O    basis set group =>   3
Atom   4C    basis set group =>   1
Atom   5C    basis set group =>   1
Atom   6N    basis set group =>   2
Atom   7C    basis set group =>   1
Atom   8C    basis set group =>   1
Atom   9O    basis set group =>   3
Atom  10H    basis set group =>   4
Atom  11H    basis set group =>   4
Atom  12H    basis set group =>   4
Atom  13H    basis set group =>   4
Atom  14H    basis set group =>   4
Atom  15H    basis set group =>   4
Atom  16H    basis set group =>   4
Atom  17H    basis set group =>   4
Atom  18H    basis set group =>   4
Atom  19H    basis set group =>   4
Atom  20H    basis set group =>   4
Atom  21H    basis set group =>   4

Checking for AutoStart:
The File: orca.gbw exists
Trying to determine its content:
     ... Fine, the file contains calculation information
     ... Fine, the calculation information was read
     ... Fine, the file contains a basis set
     ... Fine, the basis set was read
     ... Fine, the file contains a geometry
     ... Fine, the geometry was read
     ... Fine, the file contains a set of orbitals
     ... Fine, the orbitals can be read
     => possible old guess file was deleted
     => GBW file was renamed to GES file
     => GES file is set as startup file
     => Guess is set to MORead
     ... now leaving AutoStart



           ************************************************************
           *        Program running with 8 parallel MPI-processes     *
           *              working on a common directory               *
           ************************************************************
------------------------------------------------------------------------------
                           ORCA GTO INTEGRAL CALCULATION
                           -- RI-GTO INTEGRALS CHOSEN --
------------------------------------------------------------------------------
------------------------------------------------------------------------------
                   ___                                                        
                  /   \      - P O W E R E D   B Y -                         
                 /     \                                                     
                 |  |  |   _    _      __       _____    __    __             
                 |  |  |  | |  | |    /  \     |  _  \  |  |  /  |          
                  \  \/   | |  | |   /    \    | | | |  |  | /  /          
                 / \  \   | |__| |  /  /\  \   | |_| |  |  |/  /          
                |  |  |   |  __  | /  /__\  \  |    /   |      \           
                |  |  |   | |  | | |   __   |  |    \   |  |\   \          
                \     /   | |  | | |  |  |  |  | |\  \  |  | \   \       
                 \___/    |_|  |_| |__|  |__|  |_| \__\ |__|  \__/        
                                                                              
                      - O R C A' S   B I G   F R I E N D -                    
                                      &                                       
                       - I N T E G R A L  F E E D E R -                       
                                                                              
 v1 FN, 2020, v2 2021                                                         
------------------------------------------------------------------------------


Reading SHARK input file orca.SHARKINP.tmp ... ok
----------------------
SHARK INTEGRAL PACKAGE
----------------------

Number of atoms                             ...     22
Number of basis functions                   ...    382
Number of shells                            ...    158
Maximum angular momentum                    ...      3
Integral batch strategy                     ... SHARK/LIBINT Hybrid
RI-J (if used) integral strategy            ... SPLIT-RIJ (Revised 2003 algorithm where possible)
Printlevel                                  ...      1
Contraction scheme used                     ... SEGMENTED contraction
Coulomb Range Separation                    ... NOT USED
Exchange Range Separation                   ... NOT USED
Finite Nucleus Model                        ... NOT USED
Auxiliary Coulomb fitting basis             ... AVAILABLE
   # of basis functions in Aux-J            ...    622
   # of shells in Aux-J                     ...    210
   Maximum angular momentum in Aux-J        ...      4
Auxiliary J/K fitting basis                 ... NOT available
Auxiliary Correlation fitting basis         ... NOT available
Auxiliary 'external' fitting basis          ... NOT available
Integral threshold                          ...     2.500000e-11
Primitive cut-off                           ...     2.500000e-12
Primitive pair pre-selection threshold      ...     2.500000e-12

Calculating pre-screening integrals         ... done (  0.0 sec) Dimension = 158
Organizing shell pair data                  ... done (  0.0 sec)
Shell pair information
Total number of shell pairs                 ...     12561
Shell pairs after pre-screening             ...     10590
Total number of primitive shell pairs       ...     37384
Primitive shell pairs kept                  ...     22903
          la=0 lb=0:   3058 shell pairs
          la=1 lb=0:   3080 shell pairs
          la=1 lb=1:    798 shell pairs
          la=2 lb=0:   1445 shell pairs
          la=2 lb=1:    735 shell pairs
          la=2 lb=2:    184 shell pairs
          la=3 lb=0:    706 shell pairs
          la=3 lb=1:    365 shell pairs
          la=3 lb=2:    172 shell pairs
          la=3 lb=3:     47 shell pairs

Calculating one electron integrals          ... done (  0.0 sec)
Calculating RI/J V-Matrix + Cholesky decomp.... done (  0.0 sec)
Calculating Nuclear repulsion               ... done (  0.0 sec) ENN=    555.826802949250 Eh

SHARK setup successfully completed in   0.1 seconds

Maximum memory used throughout the entire GTOINT-calculation: 23.5 MB


           ************************************************************
           *        Program running with 8 parallel MPI-processes     *
           *              working on a common directory               *
           ************************************************************
-------------------------------------------------------------------------------
                                 ORCA SCF
-------------------------------------------------------------------------------

------------
SCF SETTINGS
------------
Hamiltonian:
 Density Functional     Method          .... DFT(GTOs)
 Exchange Functional    Exchange        .... PBE
   PBE kappa parameter   XKappa         ....  0.804000
   PBE mue parameter    XMuePBE         ....  0.219520
 Correlation Functional Correlation     .... PBE
   PBE beta parameter  CBetaPBE         ....  0.066725
 LDA part of GGA corr.  LDAOpt          .... PW91-LDA
 Gradients option       PostSCFGGA      .... off
   Density functional embedding theory  .... OFF
   NL short-range parameter             ....  6.400000
 RI-approximation to the Coulomb term is turned on
   Number of AuxJ basis functions       .... 622


General Settings:
 Integral files         IntName         .... orca
 Hartree-Fock type      HFTyp           .... RHF
 Total Charge           Charge          ....    0
 Multiplicity           Mult            ....    1
 Number of Electrons    NEL             ....   78
 Basis Dimension        Dim             ....  382
 Nuclear Repulsion      ENuc            ....    555.8268029492 Eh

Convergence Acceleration:
 DIIS                   CNVDIIS         .... on
   Start iteration      DIISMaxIt       ....    12
   Startup error        DIISStart       ....  0.200000
   # of expansion vecs  DIISMaxEq       ....     5
   Bias factor          DIISBfac        ....   1.050
   Max. coefficient     DIISMaxC        ....  10.000
 Trust-Rad. Augm. Hess. CNVTRAH         .... auto
   Auto Start mean grad. ratio tolernc. ....  1.125000
   Auto Start start iteration           ....     1
   Auto Start num. interpolation iter.  ....    10
   Max. Number of Micro iterations      ....    16
   Max. Number of Macro iterations      .... Maxiter - #DIIS iter
   Number of Davidson start vectors     ....     2
   Converg. threshold I  (grad. norm)   ....   1.000e-05
   Converg. threshold II (energy diff.) ....   1.000e-08
   Grad. Scal. Fac. for Micro threshold ....   0.100
   Minimum threshold for Micro iter.    ....   0.010
   NR start threshold (gradient norm)   ....   0.001
   Initial trust radius                 ....   0.400
   Minimum AH scaling param. (alpha)    ....   1.000
   Maximum AH scaling param. (alpha)    .... 1000.000
   Orbital update algorithm             .... Taylor
   White noise on init. David. guess    .... on
   Maximum white noise                  ....   0.010
   Quad. conv. algorithm                .... NR
 SOSCF                  CNVSOSCF        .... on
   Start iteration      SOSCFMaxIt      ....   150
   Startup grad/error   SOSCFStart      ....  0.003300
 Level Shifting         CNVShift        .... on
   Level shift para.    LevelShift      ....    0.2500
   Turn off err/grad.   ShiftErr        ....    0.0010
 Zerner damping         CNVZerner       .... off
 Static damping         CNVDamp         .... on
   Fraction old density DampFac         ....    0.7000
   Max. Damping (<1)    DampMax         ....    0.9800
   Min. Damping (>=0)   DampMin         ....    0.0000
   Turn off err/grad.   DampErr         ....    0.1000
 Fernandez-Rico         CNVRico         .... off

SCF Procedure:
 Maximum # iterations   MaxIter         ....   125
 SCF integral mode      SCFMode         .... Direct
   Integral package                     .... SHARK and LIBINT hybrid scheme
 Reset frequency        DirectResetFreq ....    20
 Integral Threshold     Thresh          ....  2.500e-11 Eh
 Primitive CutOff       TCut            ....  2.500e-12 Eh

Convergence Tolerance:
 Convergence Check Mode ConvCheckMode   .... Total+1el-Energy
 Convergence forced     ConvForced      .... 0
 Energy Change          TolE            ....  1.000e-08 Eh
 1-El. energy change                    ....  1.000e-05 Eh
 Orbital Gradient       TolG            ....  1.000e-05
 Orbital Rotation angle TolX            ....  1.000e-05
 DIIS Error             TolErr          ....  5.000e-07


Diagonalization of the overlap matrix:
Smallest eigenvalue                        ... 9.437e-05
Time for diagonalization                   ...    0.019 sec
Threshold for overlap eigenvalues          ... 1.000e-08
Number of eigenvalues below threshold      ... 0
Time for construction of square roots      ...    0.011 sec
Total time needed                          ...    0.030 sec

---------------------
INITIAL GUESS: MOREAD
---------------------
Guess MOs are being read from file: orca.ges
Input geometry compatible with but different from current geometry
Input basis set matches current basis set (good)
MOs were renormalized
MOs were reorthogonalized (Cholesky)
                      ------------------
                      INITIAL GUESS DONE (   0.0 sec)
                      ------------------
-------------------
DFT GRID GENERATION
-------------------

General Integration Accuracy     IntAcc      ... 4.388
Radial Grid Type                 RadialGrid  ... OptM3 with GC (2021)
Angular Grid (max. ang.)         AngularGrid ... 4 (Lebedev-302)
Angular grid pruning method      GridPruning ... 4 (adaptive)
Weight generation scheme         WeightScheme... Becke
Basis function cutoff            BFCut       ... 1.0000e-11
Integration weight cutoff        WCut        ... 1.0000e-14
Angular grids for H and He will be reduced by one unit
Partially contracted basis set               ... off
Rotationally invariant grid construction     ... off

Total number of grid points                  ...    98785
Total number of batches                      ...     1552
Average number of points per batch           ...       63
Average number of grid points per atom       ...     4490
Time for grid setup =    0.235 sec

--------------
SCF ITERATIONS
--------------
ITER       Energy         Delta-E        Max-DP      RMS-DP      [F,P]     Damp
               ***  Starting incremental Fock matrix formation  ***
  0   -495.1383552607   0.000000000000 0.04023559  0.00056193  0.2832004 0.7000
  1   -495.2199145524  -0.081559291748 0.03902169  0.00051962  0.2169689 0.7000
                               ***Turning on DIIS***
  2   -495.2812323019  -0.061317749459 0.02468918  0.00039605  0.1565035 0.7000
  3   -495.3245004300  -0.043268128068 0.01633238  0.00028736  0.1107492 0.7000
  4   -495.3547951285  -0.030294698548 0.03861970  0.00069508  0.0778475 0.0000
                      *** Initiating the SOSCF procedure ***
                           *** Shutting down DIIS ***
                      *** Re-Reading the Fockian *** 
                      *** Removing any level shift *** 
ITER      Energy       Delta-E        Grad      Rot      Max-DP    RMS-DP
  5   -495.42541968  -0.0706245508  0.000372  0.000372  0.001296  0.000026
               *** Restarting incremental Fock matrix formation ***
  6   -495.42542106  -0.0000013820  0.000571  0.002794  0.006445  0.000052
  7   -495.42535685   0.0000642080  0.002041  0.002458  0.005423  0.000037
  8   -495.42543044  -0.0000735892  0.000134  0.000545  0.000507  0.000007
  9   -495.42542906   0.0000013796  0.000214  0.000313  0.000262  0.000004
 10   -495.42543088  -0.0000018185  0.000011  0.000034  0.000138  0.000001
 11   -495.42543087   0.0000000157  0.000022  0.000029  0.000069  0.000001
 12   -495.42543088  -0.0000000177  0.000007  0.000026  0.000030  0.000000
 13   -495.42543089  -0.0000000021  0.000015  0.000023  0.000023  0.000000
 14   -495.42543089  -0.0000000068  0.000003  0.000009  0.000011  0.000000
 15   -495.42543090  -0.0000000039  0.000004  0.000006  0.000014  0.000000
                  ***Gradient check signals convergence***
              ***Rediagonalizing the Fockian in SOSCF/NRSCF***

               *****************************************************
               *                     SUCCESS                       *
               *           SCF CONVERGED AFTER  16 CYCLES          *
               *****************************************************


----------------
TOTAL SCF ENERGY
----------------

Total Energy       :         -495.42543088 Eh          -13481.21135 eV

Components:
Nuclear Repulsion  :          555.82680295 Eh           15124.81624 eV
Electronic Energy  :        -1051.25223383 Eh          -28606.02758 eV
One Electron Energy:        -1776.31091105 Eh          -48335.87724 eV
Two Electron Energy:          725.05867722 Eh           19729.84965 eV

Virial components:
Potential Energy   :         -988.98901154 Eh          -26911.75917 eV
Kinetic Energy     :          493.56358065 Eh           13430.54783 eV
Virial Ratio       :            2.00377226


DFT components:
N(Alpha)           :       39.000024563945 electrons
N(Beta)            :       39.000024563945 electrons
N(Total)           :       78.000049127891 electrons
E(X)               :      -64.949389957032 Eh       
E(C)               :       -2.601180723517 Eh       
E(XC)              :      -67.550570680549 Eh       
DFET-embed. en.    :        0.000000000000 Eh       

---------------
SCF CONVERGENCE
---------------

  Last Energy change         ...    1.2957e-08  Tolerance :   1.0000e-08
  Last MAX-Density change    ...    6.5634e-06  Tolerance :   1.0000e-07
  Last RMS-Density change    ...    9.8617e-08  Tolerance :   5.0000e-09
  Last Orbital Gradient      ...    2.1570e-07  Tolerance :   1.0000e-05
  Last Orbital Rotation      ...    5.7760e-07  Tolerance :   1.0000e-05

             **** THE GBW FILE WAS UPDATED (orca.gbw) ****
             **** DENSITY orca.scfp WAS UPDATED ****
             **** ENERGY FILE WAS UPDATED (orca.en.tmp) ****
             **** THE GBW FILE WAS UPDATED (orca.gbw) ****
             **** DENSITY orca.scfp WAS UPDATED ****
----------------
ORBITAL ENERGIES
----------------

  NO   OCC          E(Eh)            E(eV) 
   0   2.0000     -18.724618      -509.5228 
   1   2.0000     -18.708276      -509.0781 
   2   2.0000     -14.033535      -381.8719 
   3   2.0000     -14.001396      -380.9974 
   4   2.0000      -9.979190      -271.5476 
   5   2.0000      -9.972250      -271.3587 
   6   2.0000      -9.930940      -270.2346 
   7   2.0000      -9.927050      -270.1288 
   8   2.0000      -9.881842      -268.8986 
   9   2.0000      -9.879024      -268.8219 
  10   2.0000      -0.964774       -26.2528 
  11   2.0000      -0.938065       -25.5260 
  12   2.0000      -0.865640       -23.5553 
  13   2.0000      -0.845000       -22.9936 
  14   2.0000      -0.717305       -19.5189 
  15   2.0000      -0.672942       -18.3117 
  16   2.0000      -0.646862       -17.6020 
  17   2.0000      -0.594991       -16.1905 
  18   2.0000      -0.536716       -14.6048 
  19   2.0000      -0.527680       -14.3589 
  20   2.0000      -0.500526       -13.6200 
  21   2.0000      -0.442351       -12.0370 
  22   2.0000      -0.438178       -11.9234 
  23   2.0000      -0.416632       -11.3371 
  24   2.0000      -0.414649       -11.2832 
  25   2.0000      -0.411158       -11.1882 
  26   2.0000      -0.381454       -10.3799 
  27   2.0000      -0.371108       -10.0984 
  28   2.0000      -0.361330        -9.8323 
  29   2.0000      -0.354761        -9.6535 
  30   2.0000      -0.347158        -9.4466 
  31   2.0000      -0.338382        -9.2079 
  32   2.0000      -0.333755        -9.0819 
  33   2.0000      -0.322381        -8.7724 
  34   2.0000      -0.294260        -8.0072 
  35   2.0000      -0.242519        -6.5993 
  36   2.0000      -0.223975        -6.0947 
  37   2.0000      -0.217241        -5.9114 
  38   2.0000      -0.204779        -5.5723 
  39   0.0000      -0.038387        -1.0446 
  40   0.0000      -0.023022        -0.6265 
  41   0.0000      -0.012131        -0.3301 
  42   0.0000       0.025623         0.6972 
  43   0.0000       0.032292         0.8787 
  44   0.0000       0.056215         1.5297 
  45   0.0000       0.057808         1.5730 
  46   0.0000       0.068394         1.8611 
  47   0.0000       0.082547         2.2462 
  48   0.0000       0.085356         2.3227 
  49   0.0000       0.088727         2.4144 
  50   0.0000       0.092912         2.5283 
  51   0.0000       0.100736         2.7412 
  52   0.0000       0.107794         2.9332 
  53   0.0000       0.113385         3.0854 
  54   0.0000       0.128497         3.4966 
  55   0.0000       0.133823         3.6415 
  56   0.0000       0.153857         4.1867 
  57   0.0000       0.158373         4.3095 
  58   0.0000       0.170552         4.6410 
  59   0.0000       0.182838         4.9753 
  60   0.0000       0.188169         5.1203 
  61   0.0000       0.192787         5.2460 
  62   0.0000       0.203015         5.5243 
  63   0.0000       0.213693         5.8149 
  64   0.0000       0.223128         6.0716 
  65   0.0000       0.236370         6.4320 
  66   0.0000       0.245521         6.6810 
  67   0.0000       0.265364         7.2209 
  68   0.0000       0.268699         7.3117 
  69   0.0000       0.279393         7.6027 
  70   0.0000       0.283887         7.7250 
  71   0.0000       0.308046         8.3824 
  72   0.0000       0.315162         8.5760 
  73   0.0000       0.320843         8.7306 
  74   0.0000       0.327395         8.9089 
  75   0.0000       0.348152         9.4737 
  76   0.0000       0.354715         9.6523 
  77   0.0000       0.363413         9.8890 
  78   0.0000       0.368967        10.0401 
  79   0.0000       0.376285        10.2392 
  80   0.0000       0.379932        10.3385 
  81   0.0000       0.390248        10.6192 
  82   0.0000       0.404432        11.0052 
  83   0.0000       0.408889        11.1264 
  84   0.0000       0.409590        11.1455 
  85   0.0000       0.412978        11.2377 
  86   0.0000       0.418904        11.3990 
  87   0.0000       0.424728        11.5574 
  88   0.0000       0.431804        11.7500 
  89   0.0000       0.433129        11.7860 
  90   0.0000       0.446112        12.1393 
  91   0.0000       0.451332        12.2814 
  92   0.0000       0.456190        12.4136 
  93   0.0000       0.469683        12.7807 
  94   0.0000       0.482613        13.1326 
  95   0.0000       0.492397        13.3988 
  96   0.0000       0.500771        13.6267 
  97   0.0000       0.520668        14.1681 
  98   0.0000       0.526833        14.3359 
  99   0.0000       0.534141        14.5347 
 100   0.0000       0.538225        14.6459 
 101   0.0000       0.555006        15.1025 
 102   0.0000       0.567778        15.4500 
 103   0.0000       0.572562        15.5802 
 104   0.0000       0.581899        15.8343 
 105   0.0000       0.595808        16.2128 
 106   0.0000       0.616655        16.7800 
 107   0.0000       0.638207        17.3665 
 108   0.0000       0.657704        17.8970 
 109   0.0000       0.681625        18.5480 
 110   0.0000       0.704062        19.1585 
 111   0.0000       0.712511        19.3884 
 112   0.0000       0.729426        19.8487 
 113   0.0000       0.744190        20.2504 
 114   0.0000       0.750078        20.4106 
 115   0.0000       0.758089        20.6287 
 116   0.0000       0.792274        21.5589 
 117   0.0000       0.801242        21.8029 
 118   0.0000       0.821079        22.3427 
 119   0.0000       0.828810        22.5531 
 120   0.0000       0.841593        22.9009 
 121   0.0000       0.852731        23.2040 
 122   0.0000       0.867790        23.6138 
 123   0.0000       0.875429        23.8216 
 124   0.0000       0.896956        24.4074 
 125   0.0000       0.928149        25.2562 
 126   0.0000       0.936540        25.4846 
 127   0.0000       0.945688        25.7335 
 128   0.0000       0.962206        26.1830 
 129   0.0000       0.986300        26.8386 
 130   0.0000       1.000090        27.2138 
 131   0.0000       1.017216        27.6799 
 132   0.0000       1.020980        27.7823 
 133   0.0000       1.029555        28.0156 
 134   0.0000       1.070157        29.1205 
 135   0.0000       1.091910        29.7124 
 136   0.0000       1.119813        30.4717 
 137   0.0000       1.132384        30.8137 
 138   0.0000       1.152938        31.3730 
 139   0.0000       1.169020        31.8107 
 140   0.0000       1.210298        32.9339 
 141   0.0000       1.225804        33.3558 
 142   0.0000       1.251218        34.0474 
 143   0.0000       1.265742        34.4426 
 144   0.0000       1.290871        35.1264 
 145   0.0000       1.311591        35.6902 
 146   0.0000       1.324584        36.0438 
 147   0.0000       1.352740        36.8099 
 148   0.0000       1.371280        37.3144 
 149   0.0000       1.375993        37.4427 
 150   0.0000       1.414232        38.4832 
 151   0.0000       1.415936        38.5296 
 152   0.0000       1.428151        38.8620 
 153   0.0000       1.430102        38.9151 
 154   0.0000       1.439012        39.1575 
 155   0.0000       1.445512        39.3344 
 156   0.0000       1.448695        39.4210 
 157   0.0000       1.465462        39.8772 
 158   0.0000       1.468678        39.9648 
 159   0.0000       1.486162        40.4405 
 160   0.0000       1.501811        40.8663 
 161   0.0000       1.509590        41.0780 
 162   0.0000       1.523787        41.4644 
 163   0.0000       1.529598        41.6225 
 164   0.0000       1.537474        41.8368 
 165   0.0000       1.560227        42.4559 
 166   0.0000       1.567859        42.6636 
 167   0.0000       1.573422        42.8150 
 168   0.0000       1.590097        43.2687 
 169   0.0000       1.605504        43.6880 
 170   0.0000       1.631749        44.4022 
 171   0.0000       1.650633        44.9160 
 172   0.0000       1.659401        45.1546 
 173   0.0000       1.670325        45.4518 
 174   0.0000       1.701183        46.2915 
 175   0.0000       1.716684        46.7134 
 176   0.0000       1.747490        47.5516 
 177   0.0000       1.772553        48.2336 
 178   0.0000       1.786637        48.6169 
 179   0.0000       1.788809        48.6760 
 180   0.0000       1.805862        49.1400 
 181   0.0000       1.825935        49.6862 
 182   0.0000       1.841250        50.1030 
 183   0.0000       1.863238        50.7013 
 184   0.0000       1.884874        51.2900 
 185   0.0000       1.900395        51.7124 
 186   0.0000       1.907993        51.9191 
 187   0.0000       1.929629        52.5079 
 188   0.0000       1.935649        52.6717 
 189   0.0000       1.953701        53.1629 
 190   0.0000       1.974662        53.7333 
 191   0.0000       1.994601        54.2758 
 192   0.0000       2.001229        54.4562 
 193   0.0000       2.017092        54.8879 
 194   0.0000       2.038744        55.4771 
 195   0.0000       2.062313        56.1184 
 196   0.0000       2.080828        56.6222 
 197   0.0000       2.099062        57.1184 
 198   0.0000       2.105723        57.2996 
 199   0.0000       2.126444        57.8635 
 200   0.0000       2.162760        58.8517 
 201   0.0000       2.171546        59.0908 
 202   0.0000       2.175591        59.2008 
 203   0.0000       2.211579        60.1801 
 204   0.0000       2.225581        60.5611 
 205   0.0000       2.240905        60.9781 
 206   0.0000       2.265579        61.6495 
 207   0.0000       2.267854        61.7114 
 208   0.0000       2.276179        61.9380 
 209   0.0000       2.276459        61.9456 
 210   0.0000       2.298729        62.5516 
 211   0.0000       2.321437        63.1695 
 212   0.0000       2.337418        63.6044 
 213   0.0000       2.346236        63.8443 
 214   0.0000       2.360748        64.2392 
 215   0.0000       2.378922        64.7337 
 216   0.0000       2.399384        65.2906 
 217   0.0000       2.414475        65.7012 
 218   0.0000       2.426762        66.0355 
 219   0.0000       2.453608        66.7661 
 220   0.0000       2.469980        67.2116 
 221   0.0000       2.479492        67.4704 
 222   0.0000       2.503253        68.1170 
 223   0.0000       2.512441        68.3670 
 224   0.0000       2.517548        68.5060 
 225   0.0000       2.540502        69.1306 
 226   0.0000       2.549062        69.3635 
 227   0.0000       2.571310        69.9689 
 228   0.0000       2.585707        70.3607 
 229   0.0000       2.604600        70.8748 
 230   0.0000       2.617501        71.2258 
 231   0.0000       2.646102        72.0041 
 232   0.0000       2.662799        72.4584 
 233   0.0000       2.666678        72.5640 
 234   0.0000       2.688514        73.1582 
 235   0.0000       2.709546        73.7305 
 236   0.0000       2.735952        74.4490 
 237   0.0000       2.739148        74.5360 
 238   0.0000       2.772563        75.4453 
 239   0.0000       2.790147        75.9238 
 240   0.0000       2.831703        77.0546 
 241   0.0000       2.834259        77.1241 
 242   0.0000       2.851727        77.5994 
 243   0.0000       2.856037        77.7167 
 244   0.0000       2.866265        77.9950 
 245   0.0000       2.900823        78.9354 
 246   0.0000       2.909804        79.1798 
 247   0.0000       2.926862        79.6440 
 248   0.0000       2.953308        80.3636 
 249   0.0000       2.954560        80.3977 
 250   0.0000       2.979923        81.0878 
 251   0.0000       2.997296        81.5606 
 252   0.0000       3.002073        81.6906 
 253   0.0000       3.011010        81.9338 
 254   0.0000       3.024930        82.3125 
 255   0.0000       3.032265        82.5121 
 256   0.0000       3.046876        82.9097 
 257   0.0000       3.069711        83.5311 
 258   0.0000       3.095914        84.2441 
 259   0.0000       3.121608        84.9433 
 260   0.0000       3.125086        85.0379 
 261   0.0000       3.142709        85.5175 
 262   0.0000       3.145992        85.6068 
 263   0.0000       3.157040        85.9074 
 264   0.0000       3.171027        86.2880 
 265   0.0000       3.180025        86.5329 
 266   0.0000       3.203856        87.1813 
 267   0.0000       3.219796        87.6151 
 268   0.0000       3.225435        87.7685 
 269   0.0000       3.233214        87.9802 
 270   0.0000       3.246911        88.3529 
 271   0.0000       3.256893        88.6246 
 272   0.0000       3.273498        89.0764 
 273   0.0000       3.290311        89.5339 
 274   0.0000       3.325678        90.4963 
 275   0.0000       3.330565        90.6293 
 276   0.0000       3.343925        90.9928 
 277   0.0000       3.352743        91.2328 
 278   0.0000       3.368601        91.6643 
 279   0.0000       3.393664        92.3463 
 280   0.0000       3.412618        92.8621 
 281   0.0000       3.419651        93.0534 
 282   0.0000       3.442299        93.6697 
 283   0.0000       3.472004        94.4780 
 284   0.0000       3.489886        94.9646 
 285   0.0000       3.497916        95.1831 
 286   0.0000       3.524966        95.9192 
 287   0.0000       3.549497        96.5867 
 288   0.0000       3.578851        97.3855 
 289   0.0000       3.602818        98.0377 
 290   0.0000       3.655029        99.4584 
 291   0.0000       3.684394       100.2575 
 292   0.0000       3.699428       100.6665 
 293   0.0000       3.707251       100.8794 
 294   0.0000       3.738974       101.7426 
 295   0.0000       3.763173       102.4011 
 296   0.0000       3.788857       103.1000 
 297   0.0000       3.822570       104.0174 
 298   0.0000       3.836545       104.3977 
 299   0.0000       3.891781       105.9007 
 300   0.0000       3.903824       106.2285 
 301   0.0000       3.909779       106.3905 
 302   0.0000       3.948152       107.4347 
 303   0.0000       3.964984       107.8927 
 304   0.0000       3.977072       108.2216 
 305   0.0000       4.031952       109.7150 
 306   0.0000       4.043019       110.0161 
 307   0.0000       4.066175       110.6463 
 308   0.0000       4.080342       111.0317 
 309   0.0000       4.122781       112.1866 
 310   0.0000       4.168786       113.4384 
 311   0.0000       4.169505       113.4580 
 312   0.0000       4.200917       114.3128 
 313   0.0000       4.223308       114.9221 
 314   0.0000       4.259423       115.9048 
 315   0.0000       4.290358       116.7466 
 316   0.0000       4.314437       117.4018 
 317   0.0000       4.328938       117.7964 
 318   0.0000       4.415602       120.1546 
 319   0.0000       4.460153       121.3669 
 320   0.0000       4.503700       122.5519 
 321   0.0000       4.542176       123.5989 
 322   0.0000       4.639963       126.2598 
 323   0.0000       4.655884       126.6930 
 324   0.0000       4.687075       127.5418 
 325   0.0000       4.715477       128.3147 
 326   0.0000       4.754484       129.3761 
 327   0.0000       4.760180       129.5311 
 328   0.0000       4.793902       130.4487 
 329   0.0000       4.852723       132.0493 
 330   0.0000       4.871999       132.5738 
 331   0.0000       4.886968       132.9812 
 332   0.0000       4.940848       134.4473 
 333   0.0000       4.960952       134.9944 
 334   0.0000       5.007397       136.2582 
 335   0.0000       5.043212       137.2328 
 336   0.0000       5.053178       137.5040 
 337   0.0000       5.070589       137.9777 
 338   0.0000       5.116671       139.2317 
 339   0.0000       5.124493       139.4445 
 340   0.0000       5.150051       140.1400 
 341   0.0000       5.177475       140.8863 
 342   0.0000       5.185686       141.1097 
 343   0.0000       5.228796       142.2828 
 344   0.0000       5.305134       144.3600 
 345   0.0000       5.356919       145.7692 
 346   0.0000       5.388431       146.6267 
 347   0.0000       5.405337       147.0867 
 348   0.0000       5.465471       148.7230 
 349   0.0000       5.500998       149.6898 
 350   0.0000       5.584154       151.9526 
 351   0.0000       5.605703       152.5389 
 352   0.0000       5.658353       153.9716 
 353   0.0000       5.688240       154.7849 
 354   0.0000       5.778139       157.2311 
 355   0.0000       5.866748       159.6423 
 356   0.0000       5.983369       162.8158 
 357   0.0000       6.013400       163.6329 
 358   0.0000       6.180717       168.1859 
 359   0.0000       6.203392       168.8029 
 360   0.0000       6.286413       171.0620 
 361   0.0000       6.297933       171.3755 
 362   0.0000       6.434607       175.0946 
 363   0.0000       6.444292       175.3581 
 364   0.0000       6.548837       178.2029 
 365   0.0000       6.641030       180.7116 
 366   0.0000       6.714571       182.7128 
 367   0.0000       6.720291       182.8684 
 368   0.0000       6.931666       188.6202 
 369   0.0000       6.946714       189.0297 
 370   0.0000       6.952178       189.1784 
 371   0.0000       7.019955       191.0227 
 372   0.0000      22.064017       600.3924 
 373   0.0000      22.117266       601.8414 
 374   0.0000      22.122783       601.9915 
 375   0.0000      22.479006       611.6848 
 376   0.0000      22.993599       625.6876 
 377   0.0000      23.211744       631.6237 
 378   0.0000      32.088969       873.1852 
 379   0.0000      32.214309       876.5959 
 380   0.0000      43.500128      1183.6987 
 381   0.0000      43.556840      1185.2419 

                    ********************************
                    * MULLIKEN POPULATION ANALYSIS *
                    ********************************

-----------------------
MULLIKEN ATOMIC CHARGES
-----------------------
   0 C :   -0.281061
   1 N :   -0.195205
   2 C :    0.198975
   3 O :   -0.358145
   4 C :    0.049907
   5 C :   -0.371599
   6 N :   -0.252503
   7 C :    0.257765
   8 C :   -0.385307
   9 O :   -0.361499
  10 H :    0.149381
  11 H :    0.126105
  12 H :    0.130560
  13 H :    0.222412
  14 H :    0.110403
  15 H :    0.109258
  16 H :    0.084739
  17 H :    0.157539
  18 H :    0.208102
  19 H :    0.138202
  20 H :    0.117907
  21 H :    0.144064
Sum of atomic charges:    0.0000000

--------------------------------
MULLIKEN REDUCED ORBITAL CHARGES
--------------------------------
  0 C s       :     3.241928  s :     3.241928
      pz      :     1.106550  p :     2.959281
      px      :     0.975694
      py      :     0.877036
      dz2     :     0.008196  d :     0.073935
      dxz     :     0.007997
      dyz     :     0.023010
      dx2y2   :     0.025585
      dxy     :     0.009146
      f0      :     0.000974  f :     0.005918
      f+1     :     0.000197
      f-1     :     0.000712
      f+2     :     0.000074
      f-2     :     0.001103
      f+3     :     0.001299
      f-3     :     0.001559
  1 N s       :     3.430468  s :     3.430468
      pz      :     1.288252  p :     3.695542
      px      :     1.140462
      py      :     1.266827
      dz2     :     0.008233  d :     0.065255
      dxz     :     0.012040
      dyz     :     0.012541
      dx2y2   :     0.017193
      dxy     :     0.015247
      f0      :     0.000322  f :     0.003941
      f+1     :     0.000487
      f-1     :     0.000497
      f+2     :     0.000565
      f-2     :     0.000513
      f+3     :     0.000590
      f-3     :     0.000968
  2 C s       :     3.078290  s :     3.078290
      pz      :     0.817572  p :     2.451974
      px      :     0.798614
      py      :     0.835788
      dz2     :     0.046100  d :     0.249643
      dxz     :     0.055104
      dyz     :     0.028263
      dx2y2   :     0.069834
      dxy     :     0.050343
      f0      :     0.001528  f :     0.021118
      f+1     :     0.002582
      f-1     :     0.002740
      f+2     :     0.003889
      f-2     :     0.002443
      f+3     :     0.002346
      f-3     :     0.005590
  3 O s       :     3.819259  s :     3.819259
      pz      :     1.395858  p :     4.507537
      px      :     1.653834
      py      :     1.457845
      dz2     :     0.006954  d :     0.029678
      dxz     :     0.004317
      dyz     :     0.006562
      dx2y2   :     0.005675
      dxy     :     0.006169
      f0      :     0.000134  f :     0.001671
      f+1     :     0.000174
      f-1     :     0.000323
      f+2     :     0.000283
      f-2     :     0.000293
      f+3     :     0.000224
      f-3     :     0.000240
  4 C s       :     3.098904  s :     3.098904
      pz      :     0.932117  p :     2.690691
      px      :     0.831379
      py      :     0.927194
      dz2     :     0.027146  d :     0.149558
      dxz     :     0.021940
      dyz     :     0.029253
      dx2y2   :     0.032672
      dxy     :     0.038547
      f0      :     0.000966  f :     0.010941
      f+1     :     0.001918
      f-1     :     0.000624
      f+2     :     0.001444
      f-2     :     0.001986
      f+3     :     0.001503
      f-3     :     0.002500
  5 C s       :     3.249625  s :     3.249625
      pz      :     1.055217  p :     3.071342
      px      :     1.050966
      py      :     0.965159
      dz2     :     0.004003  d :     0.047510
      dxz     :     0.008486
      dyz     :     0.013117
      dx2y2   :     0.008673
      dxy     :     0.013231
      f0      :     0.000704  f :     0.003122
      f+1     :     0.000335
      f-1     :     0.000132
      f+2     :     0.000241
      f-2     :     0.000358
      f+3     :     0.000546
      f-3     :     0.000806
  6 N s       :     3.440697  s :     3.440697
      pz      :     1.188396  p :     3.750325
      px      :     1.108382
      py      :     1.453548
      dz2     :     0.012177  d :     0.057425
      dxz     :     0.012351
      dyz     :     0.007797
      dx2y2   :     0.011719
      dxy     :     0.013381
      f0      :     0.000192  f :     0.004055
      f+1     :     0.000791
      f-1     :     0.000561
      f+2     :     0.000734
      f-2     :     0.000536
      f+3     :     0.000613
      f-3     :     0.000628
  7 C s       :     3.091686  s :     3.091686
      pz      :     0.762903  p :     2.393554
      px      :     0.830377
      py      :     0.800274
      dz2     :     0.049971  d :     0.237003
      dxz     :     0.081113
      dyz     :     0.034155
      dx2y2   :     0.028977
      dxy     :     0.042788
      f0      :     0.003397  f :     0.019992
      f+1     :     0.005172
      f-1     :     0.002177
      f+2     :     0.002295
      f-2     :     0.003314
      f+3     :     0.001967
      f-3     :     0.001670
  8 C s       :     3.219567  s :     3.219567
      pz      :     1.024540  p :     3.118227
      px      :     0.993397
      py      :     1.100290
      dz2     :     0.014105  d :     0.044289
      dxz     :     0.005556
      dyz     :     0.003330
      dx2y2   :     0.004957
      dxy     :     0.016341
      f0      :     0.000592  f :     0.003224
      f+1     :     0.000804
      f-1     :     0.000136
      f+2     :     0.000197
      f-2     :     0.000422
      f+3     :     0.000701
      f-3     :     0.000372
  9 O s       :     3.818260  s :     3.818260
      pz      :     1.347160  p :     4.512203
      px      :     1.769609
      py      :     1.395434
      dz2     :     0.010037  d :     0.029364
      dxz     :     0.006373
      dyz     :     0.008715
      dx2y2   :     0.002308
      dxy     :     0.001932
      f0      :     0.000512  f :     0.001672
      f+1     :     0.000299
      f-1     :     0.000346
      f+2     :     0.000221
      f-2     :     0.000209
      f+3     :     0.000038
      f-3     :     0.000048
 10 H s       :     0.829532  s :     0.829532
      pz      :     0.011752  p :     0.021087
      px      :     0.004367
      py      :     0.004967
 11 H s       :     0.854056  s :     0.854056
      pz      :     0.006347  p :     0.019839
      px      :     0.004132
      py      :     0.009359
 12 H s       :     0.849044  s :     0.849044
      pz      :     0.004900  p :     0.020395
      px      :     0.011537
      py      :     0.003959
 13 H s       :     0.745788  s :     0.745788
      pz      :     0.014426  p :     0.031800
      px      :     0.005833
      py      :     0.011542
 14 H s       :     0.866796  s :     0.866796
      pz      :     0.013058  p :     0.022801
      px      :     0.005243
      py      :     0.004500
 15 H s       :     0.868712  s :     0.868712
      pz      :     0.011197  p :     0.022030
      px      :     0.005065
      py      :     0.005768
 16 H s       :     0.894217  s :     0.894217
      pz      :     0.007118  p :     0.021044
      px      :     0.008990
      py      :     0.004936
 17 H s       :     0.820221  s :     0.820221
      pz      :     0.005739  p :     0.022240
      px      :     0.008363
      py      :     0.008137
 18 H s       :     0.749791  s :     0.749791
      pz      :     0.018576  p :     0.042108
      px      :     0.007219
      py      :     0.016313
 19 H s       :     0.840380  s :     0.840380
      pz      :     0.005085  p :     0.021418
      px      :     0.007076
      py      :     0.009257
 20 H s       :     0.859312  s :     0.859312
      pz      :     0.011876  p :     0.022781
      px      :     0.005217
      py      :     0.005689
 21 H s       :     0.833099  s :     0.833099
      pz      :     0.005237  p :     0.022837
      px      :     0.008368
      py      :     0.009231


                     *******************************
                     * LOEWDIN POPULATION ANALYSIS *
                     *******************************

----------------------
LOEWDIN ATOMIC CHARGES
----------------------
   0 C :   -0.341353
   1 N :    0.119673
   2 C :   -0.487949
   3 O :    0.077220
   4 C :   -0.294612
   5 C :   -0.280841
   6 N :    0.170577
   7 C :   -0.476014
   8 C :   -0.278309
   9 O :    0.063125
  10 H :    0.131850
  11 H :    0.123008
  12 H :    0.123414
  13 H :    0.223363
  14 H :    0.175121
  15 H :    0.117927
  16 H :    0.113621
  17 H :    0.132484
  18 H :    0.178663
  19 H :    0.148456
  20 H :    0.128397
  21 H :    0.132178

-------------------------------
LOEWDIN REDUCED ORBITAL CHARGES
-------------------------------
  0 C s       :     2.840966  s :     2.840966
      pz      :     1.108856  p :     3.115756
      px      :     1.020712
      py      :     0.986188
      dz2     :     0.053022  d :     0.341783
      dxz     :     0.025606
      dyz     :     0.086279
      dx2y2   :     0.112974
      dxy     :     0.063902
      f0      :     0.005485  f :     0.042849
      f+1     :     0.002975
      f-1     :     0.003992
      f+2     :     0.003207
      f-2     :     0.008333
      f+3     :     0.008395
      f-3     :     0.010462
  1 N s       :     2.944517  s :     2.944517
      pz      :     1.223245  p :     3.675025
      px      :     1.216279
      py      :     1.235501
      dz2     :     0.031470  d :     0.244026
      dxz     :     0.040069
      dyz     :     0.042243
      dx2y2   :     0.069924
      dxy     :     0.060321
      f0      :     0.001384  f :     0.016758
      f+1     :     0.002142
      f-1     :     0.001373
      f+2     :     0.002401
      f-2     :     0.002032
      f+3     :     0.002529
      f-3     :     0.004896
  2 C s       :     2.724550  s :     2.724550
      pz      :     0.851074  p :     2.719221
      px      :     0.943886
      py      :     0.924261
      dz2     :     0.146076  d :     0.911541
      dxz     :     0.195198
      dyz     :     0.122791
      dx2y2   :     0.230980
      dxy     :     0.216497
      f0      :     0.012284  f :     0.132636
      f+1     :     0.014621
      f-1     :     0.013716
      f+2     :     0.023829
      f-2     :     0.016794
      f+3     :     0.016765
      f-3     :     0.034627
  3 O s       :     3.407810  s :     3.407810
      pz      :     1.398086  p :     4.442152
      px      :     1.574989
      py      :     1.469077
      dz2     :     0.010053  d :     0.067006
      dxz     :     0.011353
      dyz     :     0.018324
      dx2y2   :     0.013524
      dxy     :     0.013751
      f0      :     0.000487  f :     0.005812
      f+1     :     0.000467
      f-1     :     0.000855
      f+2     :     0.001114
      f-2     :     0.001371
      f+3     :     0.000700
      f-3     :     0.000819
  4 C s       :     2.729842  s :     2.729842
      pz      :     0.985599  p :     2.913473
      px      :     0.917687
      py      :     1.010187
      dz2     :     0.117448  d :     0.577787
      dxz     :     0.103438
      dyz     :     0.086275
      dx2y2   :     0.120317
      dxy     :     0.150310
      f0      :     0.006206  f :     0.073510
      f+1     :     0.012013
      f-1     :     0.005206
      f+2     :     0.012394
      f-2     :     0.012976
      f+3     :     0.010106
      f-3     :     0.014609
  5 C s       :     2.846819  s :     2.846819
      pz      :     1.080184  p :     3.169864
      px      :     1.072266
      py      :     1.017414
      dz2     :     0.037519  d :     0.241745
      dxz     :     0.047985
      dyz     :     0.048179
      dx2y2   :     0.048453
      dxy     :     0.059609
      f0      :     0.004012  f :     0.022412
      f+1     :     0.001209
      f-1     :     0.002612
      f+2     :     0.003362
      f-2     :     0.002967
      f+3     :     0.003591
      f-3     :     0.004660
  6 N s       :     2.925211  s :     2.925211
      pz      :     1.189869  p :     3.666168
      px      :     1.145423
      py      :     1.330876
      dz2     :     0.045279  d :     0.222483
      dxz     :     0.057446
      dyz     :     0.031677
      dx2y2   :     0.046896
      dxy     :     0.041184
      f0      :     0.000923  f :     0.015560
      f+1     :     0.004298
      f-1     :     0.001644
      f+2     :     0.001934
      f-2     :     0.002451
      f+3     :     0.002077
      f-3     :     0.002233
  7 C s       :     2.750484  s :     2.750484
      pz      :     0.938790  p :     2.720067
      px      :     0.963053
      py      :     0.818223
      dz2     :     0.192379  d :     0.878805
      dxz     :     0.288946
      dyz     :     0.145263
      dx2y2   :     0.112716
      dxy     :     0.139501
      f0      :     0.020291  f :     0.126658
      f+1     :     0.033679
      f-1     :     0.016418
      f+2     :     0.011410
      f-2     :     0.020928
      f+3     :     0.013176
      f-3     :     0.010756
  8 C s       :     2.821399  s :     2.821399
      pz      :     1.064668  p :     3.197961
      px      :     1.044447
      py      :     1.088846
      dz2     :     0.073648  d :     0.233609
      dxz     :     0.042911
      dyz     :     0.012312
      dx2y2   :     0.028533
      dxy     :     0.076204
      f0      :     0.003255  f :     0.025340
      f+1     :     0.004532
      f-1     :     0.001963
      f+2     :     0.004235
      f-2     :     0.003846
      f+3     :     0.004903
      f-3     :     0.002606
  9 O s       :     3.414248  s :     3.414248
      pz      :     1.450552  p :     4.451059
      px      :     1.630656
      py      :     1.369852
      dz2     :     0.021988  d :     0.065887
      dxz     :     0.015322
      dyz     :     0.020670
      dx2y2   :     0.003929
      dxy     :     0.003978
      f0      :     0.001343  f :     0.005681
      f+1     :     0.001008
      f-1     :     0.001728
      f+2     :     0.000694
      f-2     :     0.000735
      f+3     :     0.000084
      f-3     :     0.000089
 10 H s       :     0.806905  s :     0.806905
      pz      :     0.035873  p :     0.061244
      px      :     0.012064
      py      :     0.013307
 11 H s       :     0.819611  s :     0.819611
      pz      :     0.019170  p :     0.057381
      px      :     0.012180
      py      :     0.026031
 12 H s       :     0.817357  s :     0.817357
      pz      :     0.014632  p :     0.059229
      px      :     0.032730
      py      :     0.011867
 13 H s       :     0.693062  s :     0.693062
      pz      :     0.041363  p :     0.083575
      px      :     0.014024
      py      :     0.028188
 14 H s       :     0.765700  s :     0.765700
      pz      :     0.033136  p :     0.059179
      px      :     0.013300
      py      :     0.012742
 15 H s       :     0.815509  s :     0.815509
      pz      :     0.034950  p :     0.066564
      px      :     0.015585
      py      :     0.016029
 16 H s       :     0.826781  s :     0.826781
      pz      :     0.020440  p :     0.059598
      px      :     0.026189
      py      :     0.012969
 17 H s       :     0.802388  s :     0.802388
      pz      :     0.016416  p :     0.065128
      px      :     0.025570
      py      :     0.023142
 18 H s       :     0.703732  s :     0.703732
      pz      :     0.051304  p :     0.117605
      px      :     0.019386
      py      :     0.046915
 19 H s       :     0.792520  s :     0.792520
      pz      :     0.013477  p :     0.059024
      px      :     0.018402
      py      :     0.027145
 20 H s       :     0.804457  s :     0.804457
      pz      :     0.035226  p :     0.067146
      px      :     0.015178
      py      :     0.016742
 21 H s       :     0.800478  s :     0.800478
      pz      :     0.016423  p :     0.067344
      px      :     0.022703
      py      :     0.028218


                      *****************************
                      * MAYER POPULATION ANALYSIS *
                      *****************************

  NA   - Mulliken gross atomic population
  ZA   - Total nuclear charge
  QA   - Mulliken gross atomic charge
  VA   - Mayer's total valence
  BVA  - Mayer's bonded valence
  FA   - Mayer's free valence

  ATOM       NA         ZA         QA         VA         BVA        FA
  0 C      6.2811     6.0000    -0.2811     3.9183     3.9183     0.0000
  1 N      7.1952     7.0000    -0.1952     3.1894     3.1894    -0.0000
  2 C      5.8010     6.0000     0.1990     4.2891     4.2891    -0.0000
  3 O      8.3581     8.0000    -0.3581     2.1698     2.1698    -0.0000
  4 C      5.9501     6.0000     0.0499     3.8205     3.8205     0.0000
  5 C      6.3716     6.0000    -0.3716     3.8407     3.8407     0.0000
  6 N      7.2525     7.0000    -0.2525     3.2156     3.2156     0.0000
  7 C      5.7422     6.0000     0.2578     4.2091     4.2091    -0.0000
  8 C      6.3853     6.0000    -0.3853     3.8760     3.8760     0.0000
  9 O      8.3615     8.0000    -0.3615     2.1612     2.1612     0.0000
 10 H      0.8506     1.0000     0.1494     0.9727     0.9727     0.0000
 11 H      0.8739     1.0000     0.1261     0.9629     0.9629     0.0000
 12 H      0.8694     1.0000     0.1306     0.9621     0.9621     0.0000
 13 H      0.7776     1.0000     0.2224     0.9498     0.9498    -0.0000
 14 H      0.8896     1.0000     0.1104     1.0043     1.0043    -0.0000
 15 H      0.8907     1.0000     0.1093     0.9925     0.9925    -0.0000
 16 H      0.9153     1.0000     0.0847     0.9818     0.9818    -0.0000
 17 H      0.8425     1.0000     0.1575     0.9899     0.9899    -0.0000
 18 H      0.7919     1.0000     0.2081     0.9997     0.9997    -0.0000
 19 H      0.8618     1.0000     0.1382     0.9783     0.9783    -0.0000
 20 H      0.8821     1.0000     0.1179     0.9782     0.9782    -0.0000
 21 H      0.8559     1.0000     0.1441     0.9735     0.9735     0.0000

  Mayer bond orders larger than 0.100000
B(  0-C ,  1-N ) :   0.9782 B(  0-C , 10-H ) :   0.9597 B(  0-C , 11-H ) :   0.9561 
B(  0-C , 12-H ) :   0.9586 B(  1-N ,  2-C ) :   1.2821 B(  1-N , 13-H ) :   0.8827 
B(  2-C ,  3-O ) :   1.9601 B(  2-C ,  4-C ) :   0.9631 B(  4-C ,  5-C ) :   0.9575 
B(  4-C ,  6-N ) :   0.9941 B(  4-C , 14-H ) :   0.9004 B(  5-C , 15-H ) :   0.9661 
B(  5-C , 16-H ) :   0.9496 B(  5-C , 17-H ) :   0.9614 B(  6-N ,  7-C ) :   1.2237 
B(  6-N , 18-H ) :   0.8855 B(  7-C ,  8-C ) :   0.9928 B(  7-C ,  9-O ) :   1.9414 
B(  8-C , 19-H ) :   0.9695 B(  8-C , 20-H ) :   0.9633 B(  8-C , 21-H ) :   0.9354 


-------
TIMINGS
-------

Total SCF time: 0 days 0 hours 0 min 4 sec 

Total time                  ....       4.328 sec
Sum of individual times     ....       4.113 sec  ( 95.0%)

Fock matrix formation       ....       3.289 sec  ( 76.0%)
  Split-RI-J                ....       1.162 sec  ( 35.3% of F)
  XC integration            ....       2.077 sec  ( 63.1% of F)
    Basis function eval.    ....       0.416 sec  ( 20.1% of XC)
    Density eval.           ....       0.837 sec  ( 40.3% of XC)
    XC-Functional eval.     ....       0.045 sec  (  2.2% of XC)
    XC-Potential eval.      ....       0.543 sec  ( 26.2% of XC)
Diagonalization             ....       0.171 sec  (  4.0%)
Density matrix formation    ....       0.009 sec  (  0.2%)
Population analysis         ....       0.023 sec  (  0.5%)
Initial guess               ....       0.028 sec  (  0.6%)
Orbital Transformation      ....       0.000 sec  (  0.0%)
Orbital Orthonormalization  ....       0.024 sec  (  0.5%)
DIIS solution               ....       0.080 sec  (  1.8%)
SOSCF solution              ....       0.278 sec  (  6.4%)
Grid generation             ....       0.235 sec  (  5.4%)

Maximum memory used throughout the entire SCF-calculation: 44.7 MB

-------------------------   --------------------
FINAL SINGLE POINT ENERGY      -495.425430883341
-------------------------   --------------------



           ************************************************************
           *        Program running with 8 parallel MPI-processes     *
           *              working on a common directory               *
           ************************************************************
------------------------------------------------------------------------------
                         ORCA SCF GRADIENT CALCULATION
------------------------------------------------------------------------------

Gradient of the Kohn-Sham DFT energy:
Kohn-Sham wavefunction type      ... RKS
Hartree-Fock exchange scaling    ...    0.000
Number of operators              ...    1
Number of atoms                  ...   22
Basis set dimensions             ...  382
Integral neglect threshold       ... 2.5e-11
Integral primitive cutoff        ... 2.5e-12
SHARK Integral package           ... ON

Nuc. rep. gradient       (SHARK) ... done (  0.0 sec)
HCore & Overlap gradient (SHARK) ... done (  0.0 sec)
RI-J gradient            (SHARK) ... done (  0.3 sec)
Exchange-correlation gradient    ... done

------------------
CARTESIAN GRADIENT
------------------

   1   C   :   -0.017172883   -0.031741069    0.004917559
   2   N   :   -0.020773020    0.043946637   -0.057389077
   3   C   :    0.012635203   -0.030545617    0.012288947
   4   O   :   -0.006811344   -0.006414087    0.009145797
   5   C   :    0.013678955    0.069416142   -0.024641583
   6   C   :   -0.004132605   -0.009612473   -0.018753908
   7   N   :    0.023313348    0.003199314   -0.011846656
   8   C   :   -0.018885868    0.006799658   -0.011656204
   9   C   :    0.014416864    0.045027546    0.007371922
  10   O   :    0.002404355   -0.007581712    0.000189032
  11   H   :    0.002023977    0.002977604    0.000230776
  12   H   :   -0.003856143    0.011389882    0.003058919
  13   H   :    0.005069699   -0.001838858   -0.001544217
  14   H   :    0.005099022   -0.025086269    0.040507005
  15   H   :   -0.003888378   -0.011164124    0.002227334
  16   H   :   -0.012609320    0.004843205    0.014790273
  17   H   :   -0.000075082   -0.002898852    0.009417851
  18   H   :    0.007998016   -0.001407360   -0.003248626
  19   H   :    0.007535841   -0.015570068    0.017238177
  20   H   :   -0.004729849   -0.001712978   -0.012873199
  21   H   :   -0.004414837   -0.019730094    0.022583828
  22   H   :    0.003174048   -0.022296427   -0.002013949

Difference to translation invariance:
           :    0.0000000000   -0.0000000000    0.0000000000

Difference to rotation invariance:
           :    0.0000145425   -0.0002507138   -0.0003388116

Norm of the cartesian gradient     ...    0.1532622234
RMS gradient                       ...    0.0188652756
MAX gradient                       ...    0.0694161422

-------
TIMINGS
-------

Total SCF gradient time            ...        1.499 sec

One electron gradient       ....       0.049 sec  (  3.3%)
RI-J Coulomb gradient       ....       0.288 sec  ( 19.2%)
XC gradient                 ....       1.056 sec  ( 70.4%)

Maximum memory used throughout the entire SCFGRAD-calculation: 38.0 MB

                            ***************************************
                            *     ORCA property calculations      *
                            ***************************************

                                    ---------------------
                                    Active property flags
                                    ---------------------
   (+) Dipole Moment


------------------------------------------------------------------------------
                       ORCA ELECTRIC PROPERTIES CALCULATION
------------------------------------------------------------------------------

Dipole Moment Calculation                       ... on
Quadrupole Moment Calculation                   ... off
Polarizability Calculation                      ... off
GBWName                                         ... orca.gbw
Electron density                                ... orca.scfp
The origin for moment calculation is the CENTER OF MASS  = ( 0.054705,  0.054596  0.021201)

-------------
DIPOLE MOMENT
-------------
                                X             Y             Z
Electronic contribution:     -2.48106       1.35846       0.41725
Nuclear contribution   :      3.64835      -1.23259      -0.60861
                        -----------------------------------------
Total Dipole Moment    :      1.16729       0.12586      -0.19136
                        -----------------------------------------
Magnitude (a.u.)       :      1.18955
Magnitude (Debye)      :      3.02359



--------------------
Rotational spectrum 
--------------------
 
Rotational constants in cm-1:     0.097935     0.023051     0.020016 
Rotational constants in MHz :  2936.006913   691.054505   600.057053 

 Dipole components along the rotational axes: 
x,y,z [a.u.] :     1.117832    -0.267463    -0.306499 
x,y,z [Debye]:     2.841302    -0.679836    -0.779057 

 

Timings for individual modules:

Sum of individual times         ...        6.946 sec (=   0.116 min)
GTO integral calculation        ...        0.468 sec (=   0.008 min)   6.7 %
SCF iterations                  ...        4.653 sec (=   0.078 min)  67.0 %
SCF Gradient evaluation         ...        1.825 sec (=   0.030 min)  26.3 %
                             ****ORCA TERMINATED NORMALLY****
TOTAL RUN TIME: 0 days 0 hours 0 minutes 7 seconds 364 msec
