
                                 *****************
                                 * O   R   C   A *
                                 *****************

                                            #,                                       
                                            ###                                      
                                            ####                                     
                                            #####                                    
                                            ######                                   
                                           ########,                                 
                                     ,,################,,,,,                         
                               ,,#################################,,                 
                          ,,##########################################,,             
                       ,#########################################, ''#####,          
                    ,#############################################,,   '####,        
                  ,##################################################,,,,####,       
                ,###########''''           ''''###############################       
              ,#####''   ,,,,##########,,,,          '''####'''          '####       
            ,##' ,,,,###########################,,,                        '##       
           ' ,,###''''                  '''############,,,                           
         ,,##''                                '''############,,,,        ,,,,,,###''
      ,#''                                            '''#######################'''  
     '                                                          ''''####''''         
             ,#######,   #######,   ,#######,      ##                                
            ,#'     '#,  ##    ##  ,#'     '#,    #''#        ######   ,####,        
            ##       ##  ##   ,#'  ##            #'  '#       #        #'  '#        
            ##       ##  #######   ##           ,######,      #####,   #    #        
            '#,     ,#'  ##    ##  '#,     ,#' ,#      #,         ##   #,  ,#        
             '#######'   ##     ##  '#######'  #'      '#     #####' # '####'        



                  #######################################################
                  #                        -***-                        #
                  #          Department of theory and spectroscopy      #
                  #    Directorship and core code : Frank Neese         #
                  #        Max Planck Institute fuer Kohlenforschung    #
                  #                Kaiser Wilhelm Platz 1               #
                  #                 D-45470 Muelheim/Ruhr               #
                  #                      Germany                        #
                  #                                                     #
                  #                  All rights reserved                #
                  #                        -***-                        #
                  #######################################################


                         Program Version 5.0.4 -  RELEASE  -


 With contributions from (in alphabetic order):
   Daniel Aravena         : Magnetic Suceptibility
   Michael Atanasov       : Ab Initio Ligand Field Theory (pilot matlab implementation)
   Alexander A. Auer      : GIAO ZORA, VPT2 properties, NMR spectrum
   Ute Becker             : Parallelization
   Giovanni Bistoni       : ED, misc. LED, open-shell LED, HFLD
   Martin Brehm           : Molecular dynamics
   Dmytro Bykov           : SCF Hessian
   Vijay G. Chilkuri      : MRCI spin determinant printing, contributions to CSF-ICE
   Dipayan Datta          : RHF DLPNO-CCSD density
   Achintya Kumar Dutta   : EOM-CC, STEOM-CC
   Dmitry Ganyushin       : Spin-Orbit,Spin-Spin,Magnetic field MRCI
   Miquel Garcia          : C-PCM and meta-GGA Hessian, CC/C-PCM, Gaussian charge scheme
   Yang Guo               : DLPNO-NEVPT2, F12-NEVPT2, CIM, IAO-localization
   Andreas Hansen         : Spin unrestricted coupled pair/coupled cluster methods
   Benjamin Helmich-Paris : MC-RPA, TRAH-SCF, COSX integrals
   Lee Huntington         : MR-EOM, pCC
   Robert Izsak           : Overlap fitted RIJCOSX, COSX-SCS-MP3, EOM
   Marcus Kettner         : VPT2
   Christian Kollmar      : KDIIS, OOCD, Brueckner-CCSD(T), CCSD density, CASPT2, CASPT2-K
   Simone Kossmann        : Meta GGA functionals, TD-DFT gradient, OOMP2, MP2 Hessian
   Martin Krupicka        : Initial AUTO-CI
   Lucas Lang             : DCDCAS
   Marvin Lechner         : AUTO-CI (C++ implementation), FIC-MRCC
   Dagmar Lenk            : GEPOL surface, SMD
   Dimitrios Liakos       : Extrapolation schemes; Compound Job, initial MDCI parallelization
   Dimitrios Manganas     : Further ROCIS development; embedding schemes
   Dimitrios Pantazis     : SARC Basis sets
   Anastasios Papadopoulos: AUTO-CI, single reference methods and gradients
   Taras Petrenko         : DFT Hessian,TD-DFT gradient, ASA, ECA, R-Raman, ABS, FL, XAS/XES, NRVS
   Peter Pinski           : DLPNO-MP2, DLPNO-MP2 Gradient
   Christoph Reimann      : Effective Core Potentials
   Marius Retegan         : Local ZFS, SOC
   Christoph Riplinger    : Optimizer, TS searches, QM/MM, DLPNO-CCSD(T), (RO)-DLPNO pert. Triples
   Tobias Risthaus        : Range-separated hybrids, TD-DFT gradient, RPA, STAB
   Michael Roemelt        : Original ROCIS implementation
   Masaaki Saitow         : Open-shell DLPNO-CCSD energy and density
   Barbara Sandhoefer     : DKH picture change effects
   Avijit Sen             : IP-ROCIS
   Kantharuban Sivalingam : CASSCF convergence, NEVPT2, FIC-MRCI
   Bernardo de Souza      : ESD, SOC TD-DFT
   Georgi Stoychev        : AutoAux, RI-MP2 NMR, DLPNO-MP2 response
   Willem Van den Heuvel  : Paramagnetic NMR
   Boris Wezisla          : Elementary symmetry handling
   Frank Wennmohs         : Technical directorship


 We gratefully acknowledge several colleagues who have allowed us to
 interface, adapt or use parts of their codes:
   Stefan Grimme, W. Hujo, H. Kruse, P. Pracht,  : VdW corrections, initial TS optimization,
                  C. Bannwarth, S. Ehlert          DFT functionals, gCP, sTDA/sTD-DF
   Ed Valeev, F. Pavosevic, A. Kumar             : LibInt (2-el integral package), F12 methods
   Garnet Chan, S. Sharma, J. Yang, R. Olivares  : DMRG
   Ulf Ekstrom                                   : XCFun DFT Library
   Mihaly Kallay                                 : mrcc  (arbitrary order and MRCC methods)
   Jiri Pittner, Ondrej Demel                    : Mk-CCSD
   Frank Weinhold                                : gennbo (NPA and NBO analysis)
   Christopher J. Cramer and Donald G. Truhlar   : smd solvation model
   Lars Goerigk                                  : TD-DFT with DH, B97 family of functionals
   V. Asgeirsson, H. Jonsson                     : NEB implementation
   FAccTs GmbH                                   : IRC, NEB, NEB-TS, DLPNO-Multilevel, CI-OPT
                                                   MM, QMMM, 2- and 3-layer-ONIOM, Crystal-QMMM,
                                                   LR-CPCM, SF, NACMEs, symmetry and pop. for TD-DFT,
                                                   nearIR, NL-DFT gradient (VV10), updates on ESD,
                                                   ML-optimized integration grids
   S Lehtola, MJT Oliveira, MAL Marques          : LibXC Library
   Liviu Ungur et al                             : ANISO software


 Your calculation uses the libint2 library for the computation of 2-el integrals
 For citations please refer to: http://libint.valeyev.net

 Your ORCA version has been built with support for libXC version: 5.1.0
 For citations please refer to: https://tddft.org/programs/libxc/

 This ORCA versions uses:
   CBLAS   interface :  Fast vector & matrix operations
   LAPACKE interface :  Fast linear algebra routines
   SCALAPACK package :  Parallel linear algebra routines
   Shared memory     :  Shared parallel matrices
   BLAS/LAPACK       :  OpenBLAS 0.3.15  USE64BITINT DYNAMIC_ARCH NO_AFFINITY Prescott SINGLE_THREADED
        Core in use  :  Prescott
   Copyright (c) 2011-2014, The OpenBLAS Project


================================================================================

----- Orbital basis set information -----
Your calculation utilizes the basis: def2-TZVP
   F. Weigend and R. Ahlrichs, Phys. Chem. Chem. Phys. 7, 3297 (2005).

----- AuxJ basis set information -----
Your calculation utilizes the auxiliary basis: def2/J
   F. Weigend, Phys. Chem. Chem. Phys. 8, 1057 (2006).

================================================================================
                                        WARNINGS
                       Please study these warnings very carefully!
================================================================================

WARNING: Old DensityContainer found on disk!
         Will remove this file - 
         If you want to keep old densities, please start your calculation with a different basename. 


INFO   : the flag for use of the SHARK integral package has been found!

================================================================================
                                       INPUT FILE
================================================================================
NAME = orca.inp
|  1> ! PBE def2-TZVP TightSCF EnGrad 
|  2> %pal nprocs 8 end 
|  3> *xyz 0 1 
|  4> C   -2.295121201140459 2.7422935628538934 -0.5668975802666153
|  5> N   -1.3360725159718003 1.6711150844677845 -0.8331855458518629
|  6> C   -0.3492422545483897 1.3752767728155058 0.07222061503417082
|  7> O   -0.22288749063767382 1.9730731665273373 1.1337137601425344
|  8> C   0.6460706522833621 0.2377056752847951 -0.2977825700118821
|  9> C   1.3732636460797676 0.49385012508525855 -1.6489970554122317
| 10> N   0.07329671794788475 -1.0646151587061452 -0.13354992502719992
| 11> C   0.6782839776754518 -2.0856546909338496 0.5464369578659422
| 12> C   -0.09431017640819614 -3.391426739932018 0.6737806965864249
| 13> O   1.7009879917925186 -1.9377862401988584 1.1923805429425804
| 14> H   -1.779314917996862 3.735541549315105 -0.4234821284847151
| 15> H   -3.035184452563713 2.8302673865748367 -1.3747264282718323
| 16> H   -2.9155543994863127 2.495168476770214 0.2883692747680271
| 17> H   -1.3331971655413581 1.1320123414170742 -1.6963583870302874
| 18> H   1.3914930027799641 0.36935871792042024 0.5439100238079522
| 19> H   0.6608289261273389 0.5360689391456869 -2.4525552434348907
| 20> H   2.031548429342542 1.4080594925156442 -1.6986277940618975
| 21> H   1.9900626516921913 -0.4167546057891384 -1.8377726532577252
| 22> H   -0.7998780388336054 -1.2044390209091815 -0.6159868069735043
| 23> H   -1.0432126583964967 -3.089864762799547 1.1750478330651333
| 24> H   0.48366694605681404 -4.1830121916564345 1.132965235778463
| 25> H   -0.29525627655352704 -3.7525854485431642 -0.3380389498601222
| 26> *
| 27> 
| 28>                          ****END OF INPUT****
================================================================================

                     *******************************
                     * Energy+Gradient Calculation *
                     *******************************

---------------------------------
CARTESIAN COORDINATES (ANGSTROEM)
---------------------------------
  C     -2.295121    2.742294   -0.566898
  N     -1.336073    1.671115   -0.833186
  C     -0.349242    1.375277    0.072221
  O     -0.222887    1.973073    1.133714
  C      0.646071    0.237706   -0.297783
  C      1.373264    0.493850   -1.648997
  N      0.073297   -1.064615   -0.133550
  C      0.678284   -2.085655    0.546437
  C     -0.094310   -3.391427    0.673781
  O      1.700988   -1.937786    1.192381
  H     -1.779315    3.735542   -0.423482
  H     -3.035184    2.830267   -1.374726
  H     -2.915554    2.495168    0.288369
  H     -1.333197    1.132012   -1.696358
  H      1.391493    0.369359    0.543910
  H      0.660829    0.536069   -2.452555
  H      2.031548    1.408059   -1.698628
  H      1.990063   -0.416755   -1.837773
  H     -0.799878   -1.204439   -0.615987
  H     -1.043213   -3.089865    1.175048
  H      0.483667   -4.183012    1.132965
  H     -0.295256   -3.752585   -0.338039

----------------------------
CARTESIAN COORDINATES (A.U.)
----------------------------
  NO LB      ZA    FRAG     MASS         X           Y           Z
   0 C     6.0000    0    12.011   -4.337151    5.182184   -1.071281
   1 N     7.0000    0    14.007   -2.524811    3.157950   -1.574493
   2 C     6.0000    0    12.011   -0.659972    2.598896    0.136477
   3 O     8.0000    0    15.999   -0.421196    3.728568    2.142409
   4 C     6.0000    0    12.011    1.220897    0.449199   -0.562728
   5 C     6.0000    0    12.011    2.595092    0.933241   -3.116153
   6 N     7.0000    0    14.007    0.138511   -2.011831   -0.252373
   7 C     6.0000    0    12.011    1.281771   -3.941316    1.032616
   8 C     6.0000    0    12.011   -0.178220   -6.408868    1.273261
   9 O     8.0000    0    15.999    3.214401   -3.661885    2.253273
  10 H     1.0000    0     1.008   -3.362418    7.059150   -0.800265
  11 H     1.0000    0     1.008   -5.735667    5.348430   -2.597856
  12 H     1.0000    0     1.008   -5.509599    4.715185    0.544939
  13 H     1.0000    0     1.008   -2.519378    2.139193   -3.205653
  14 H     1.0000    0     1.008    2.629541    0.697987    1.027841
  15 H     1.0000    0     1.008    1.248786    1.013023   -4.634658
  16 H     1.0000    0     1.008    3.839070    2.660847   -3.209941
  17 H     1.0000    0     1.008    3.760673   -0.787552   -3.472887
  18 H     1.0000    0     1.008   -1.511550   -2.276060   -1.164046
  19 H     1.0000    0     1.008   -1.971386   -5.838998    2.220519
  20 H     1.0000    0     1.008    0.913998   -7.904747    2.140994
  21 H     1.0000    0     1.008   -0.557954   -7.091359   -0.638801

--------------------------------
INTERNAL COORDINATES (ANGSTROEM)
--------------------------------
 C      0   0   0     0.000000000000     0.00000000     0.00000000
 N      1   0   0     1.462226724450     0.00000000     0.00000000
 C      2   1   0     1.371537308159   120.64426552     0.00000000
 O      3   2   1     1.224783144810   122.75704827     0.39432073
 C      3   2   1     1.556154922039   117.44606533   181.03733496
 C      5   3   2     1.555699268800   112.65158028    56.66448640
 N      5   3   2     1.432159871027   112.43752582   283.52485426
 C      7   5   3     1.367813390675   123.98087463   229.57035403
 C      8   7   5     1.522550097258   117.21520322   177.62558952
 O      8   7   5     1.218618764961   122.96511674     7.77939668
 H      1   2   3     1.128346434456   111.60314713    59.11530545
 H      1   2   3     1.099099839613   111.49467326   181.68261040
 H      1   2   3     1.085121907945   110.59200397   294.76023769
 H      2   1   3     1.017697100788   122.98191029   182.36426204
 H      5   3   2     1.132004163750    99.17009428   171.33150084
 H      6   5   3     1.074733185490   110.24348394   298.12666749
 H      6   5   3     1.127643930322   116.39705394    62.63031288
 H      6   5   3     1.115920344629   105.72021582   184.23899085
 H      7   5   3     1.007338182233   114.70661756    53.57325271
 H      9   8   7     1.114730590093   103.74201223   302.45247847
 H      9   8   7     1.082365706454   113.06252347   174.08968387
 H      9   8   7     1.092974814396   107.41282326    59.41622648

---------------------------
INTERNAL COORDINATES (A.U.)
---------------------------
 C      0   0   0     0.000000000000     0.00000000     0.00000000
 N      1   0   0     2.763208054912     0.00000000     0.00000000
 C      2   1   0     2.591829894876   120.64426552     0.00000000
 O      3   2   1     2.314504717133   122.75704827     0.39432073
 C      3   2   1     2.940706624608   117.44606533   181.03733496
 C      5   3   2     2.939845564774   112.65158028    56.66448640
 N      5   3   2     2.706389936233   112.43752582   283.52485426
 C      7   5   3     2.584792710687   123.98087463   229.57035403
 C      8   7   5     2.877202708993   117.21520322   177.62558952
 O      8   7   5     2.302855727434   122.96511674     7.77939668
 H      1   2   3     2.132265745308   111.60314713    59.11530545
 H      1   2   3     2.076997690705   111.49467326   181.68261040
 H      1   2   3     2.050583227934   110.59200397   294.76023769
 H      2   1   3     1.923168807776   122.98191029   182.36426204
 H      5   3   2     2.139177851945    99.17009428   171.33150084
 H      6   5   3     2.030951387612   110.24348394   298.12666749
 H      6   5   3     2.130938204887   116.39705394    62.63031288
 H      6   5   3     2.108783838620   105.72021582   184.23899085
 H      7   5   3     1.903593288662   114.70661756    53.57325271
 H      9   8   7     2.106535528380   103.74201223   302.45247847
 H      9   8   7     2.045374761946   113.06252347   174.08968387
 H      9   8   7     2.065423070482   107.41282326    59.41622648

---------------------
BASIS SET INFORMATION
---------------------
There are 4 groups of distinct atoms

 Group   1 Type C   : 11s6p2d1f contracted to 5s3p2d1f pattern {62111/411/11/1}
 Group   2 Type N   : 11s6p2d1f contracted to 5s3p2d1f pattern {62111/411/11/1}
 Group   3 Type O   : 11s6p2d1f contracted to 5s3p2d1f pattern {62111/411/11/1}
 Group   4 Type H   : 5s1p contracted to 3s1p pattern {311/1}

Atom   0C    basis set group =>   1
Atom   1N    basis set group =>   2
Atom   2C    basis set group =>   1
Atom   3O    basis set group =>   3
Atom   4C    basis set group =>   1
Atom   5C    basis set group =>   1
Atom   6N    basis set group =>   2
Atom   7C    basis set group =>   1
Atom   8C    basis set group =>   1
Atom   9O    basis set group =>   3
Atom  10H    basis set group =>   4
Atom  11H    basis set group =>   4
Atom  12H    basis set group =>   4
Atom  13H    basis set group =>   4
Atom  14H    basis set group =>   4
Atom  15H    basis set group =>   4
Atom  16H    basis set group =>   4
Atom  17H    basis set group =>   4
Atom  18H    basis set group =>   4
Atom  19H    basis set group =>   4
Atom  20H    basis set group =>   4
Atom  21H    basis set group =>   4
---------------------------------
AUXILIARY/J BASIS SET INFORMATION
---------------------------------
There are 4 groups of distinct atoms

 Group   1 Type C   : 12s5p4d2f1g contracted to 6s4p3d1f1g pattern {711111/2111/211/2/1}
 Group   2 Type N   : 12s5p4d2f1g contracted to 6s4p3d1f1g pattern {711111/2111/211/2/1}
 Group   3 Type O   : 12s5p4d2f1g contracted to 6s4p3d1f1g pattern {711111/2111/211/2/1}
 Group   4 Type H   : 5s2p1d contracted to 3s1p1d pattern {311/2/1}

Atom   0C    basis set group =>   1
Atom   1N    basis set group =>   2
Atom   2C    basis set group =>   1
Atom   3O    basis set group =>   3
Atom   4C    basis set group =>   1
Atom   5C    basis set group =>   1
Atom   6N    basis set group =>   2
Atom   7C    basis set group =>   1
Atom   8C    basis set group =>   1
Atom   9O    basis set group =>   3
Atom  10H    basis set group =>   4
Atom  11H    basis set group =>   4
Atom  12H    basis set group =>   4
Atom  13H    basis set group =>   4
Atom  14H    basis set group =>   4
Atom  15H    basis set group =>   4
Atom  16H    basis set group =>   4
Atom  17H    basis set group =>   4
Atom  18H    basis set group =>   4
Atom  19H    basis set group =>   4
Atom  20H    basis set group =>   4
Atom  21H    basis set group =>   4

Checking for AutoStart:
The File: orca.gbw exists
Trying to determine its content:
     ... Fine, the file contains calculation information
     ... Fine, the calculation information was read
     ... Fine, the file contains a basis set
     ... Fine, the basis set was read
     ... Fine, the file contains a geometry
     ... Fine, the geometry was read
     ... Fine, the file contains a set of orbitals
     ... Fine, the orbitals can be read
     => possible old guess file was deleted
     => GBW file was renamed to GES file
     => GES file is set as startup file
     => Guess is set to MORead
     ... now leaving AutoStart



           ************************************************************
           *        Program running with 8 parallel MPI-processes     *
           *              working on a common directory               *
           ************************************************************
------------------------------------------------------------------------------
                           ORCA GTO INTEGRAL CALCULATION
                           -- RI-GTO INTEGRALS CHOSEN --
------------------------------------------------------------------------------
------------------------------------------------------------------------------
                   ___                                                        
                  /   \      - P O W E R E D   B Y -                         
                 /     \                                                     
                 |  |  |   _    _      __       _____    __    __             
                 |  |  |  | |  | |    /  \     |  _  \  |  |  /  |          
                  \  \/   | |  | |   /    \    | | | |  |  | /  /          
                 / \  \   | |__| |  /  /\  \   | |_| |  |  |/  /          
                |  |  |   |  __  | /  /__\  \  |    /   |      \           
                |  |  |   | |  | | |   __   |  |    \   |  |\   \          
                \     /   | |  | | |  |  |  |  | |\  \  |  | \   \       
                 \___/    |_|  |_| |__|  |__|  |_| \__\ |__|  \__/        
                                                                              
                      - O R C A' S   B I G   F R I E N D -                    
                                      &                                       
                       - I N T E G R A L  F E E D E R -                       
                                                                              
 v1 FN, 2020, v2 2021                                                         
------------------------------------------------------------------------------


Reading SHARK input file orca.SHARKINP.tmp ... ok
----------------------
SHARK INTEGRAL PACKAGE
----------------------

Number of atoms                             ...     22
Number of basis functions                   ...    382
Number of shells                            ...    158
Maximum angular momentum                    ...      3
Integral batch strategy                     ... SHARK/LIBINT Hybrid
RI-J (if used) integral strategy            ... SPLIT-RIJ (Revised 2003 algorithm where possible)
Printlevel                                  ...      1
Contraction scheme used                     ... SEGMENTED contraction
Coulomb Range Separation                    ... NOT USED
Exchange Range Separation                   ... NOT USED
Finite Nucleus Model                        ... NOT USED
Auxiliary Coulomb fitting basis             ... AVAILABLE
   # of basis functions in Aux-J            ...    622
   # of shells in Aux-J                     ...    210
   Maximum angular momentum in Aux-J        ...      4
Auxiliary J/K fitting basis                 ... NOT available
Auxiliary Correlation fitting basis         ... NOT available
Auxiliary 'external' fitting basis          ... NOT available
Integral threshold                          ...     2.500000e-11
Primitive cut-off                           ...     2.500000e-12
Primitive pair pre-selection threshold      ...     2.500000e-12

Calculating pre-screening integrals         ... done (  0.0 sec) Dimension = 158
Organizing shell pair data                  ... done (  0.0 sec)
Shell pair information
Total number of shell pairs                 ...     12561
Shell pairs after pre-screening             ...     10572
Total number of primitive shell pairs       ...     37384
Primitive shell pairs kept                  ...     22725
          la=0 lb=0:   3069 shell pairs
          la=1 lb=0:   3079 shell pairs
          la=1 lb=1:    795 shell pairs
          la=2 lb=0:   1436 shell pairs
          la=2 lb=1:    733 shell pairs
          la=2 lb=2:    183 shell pairs
          la=3 lb=0:    699 shell pairs
          la=3 lb=1:    361 shell pairs
          la=3 lb=2:    169 shell pairs
          la=3 lb=3:     48 shell pairs

Calculating one electron integrals          ... done (  0.0 sec)
Calculating RI/J V-Matrix + Cholesky decomp.... done (  0.0 sec)
Calculating Nuclear repulsion               ... done (  0.0 sec) ENN=    545.606004725335 Eh

SHARK setup successfully completed in   0.2 seconds

Maximum memory used throughout the entire GTOINT-calculation: 23.4 MB


           ************************************************************
           *        Program running with 8 parallel MPI-processes     *
           *              working on a common directory               *
           ************************************************************
-------------------------------------------------------------------------------
                                 ORCA SCF
-------------------------------------------------------------------------------

------------
SCF SETTINGS
------------
Hamiltonian:
 Density Functional     Method          .... DFT(GTOs)
 Exchange Functional    Exchange        .... PBE
   PBE kappa parameter   XKappa         ....  0.804000
   PBE mue parameter    XMuePBE         ....  0.219520
 Correlation Functional Correlation     .... PBE
   PBE beta parameter  CBetaPBE         ....  0.066725
 LDA part of GGA corr.  LDAOpt          .... PW91-LDA
 Gradients option       PostSCFGGA      .... off
   Density functional embedding theory  .... OFF
   NL short-range parameter             ....  6.400000
 RI-approximation to the Coulomb term is turned on
   Number of AuxJ basis functions       .... 622


General Settings:
 Integral files         IntName         .... orca
 Hartree-Fock type      HFTyp           .... RHF
 Total Charge           Charge          ....    0
 Multiplicity           Mult            ....    1
 Number of Electrons    NEL             ....   78
 Basis Dimension        Dim             ....  382
 Nuclear Repulsion      ENuc            ....    545.6060047253 Eh

Convergence Acceleration:
 DIIS                   CNVDIIS         .... on
   Start iteration      DIISMaxIt       ....    12
   Startup error        DIISStart       ....  0.200000
   # of expansion vecs  DIISMaxEq       ....     5
   Bias factor          DIISBfac        ....   1.050
   Max. coefficient     DIISMaxC        ....  10.000
 Trust-Rad. Augm. Hess. CNVTRAH         .... auto
   Auto Start mean grad. ratio tolernc. ....  1.125000
   Auto Start start iteration           ....     1
   Auto Start num. interpolation iter.  ....    10
   Max. Number of Micro iterations      ....    16
   Max. Number of Macro iterations      .... Maxiter - #DIIS iter
   Number of Davidson start vectors     ....     2
   Converg. threshold I  (grad. norm)   ....   1.000e-05
   Converg. threshold II (energy diff.) ....   1.000e-08
   Grad. Scal. Fac. for Micro threshold ....   0.100
   Minimum threshold for Micro iter.    ....   0.010
   NR start threshold (gradient norm)   ....   0.001
   Initial trust radius                 ....   0.400
   Minimum AH scaling param. (alpha)    ....   1.000
   Maximum AH scaling param. (alpha)    .... 1000.000
   Orbital update algorithm             .... Taylor
   White noise on init. David. guess    .... on
   Maximum white noise                  ....   0.010
   Quad. conv. algorithm                .... NR
 SOSCF                  CNVSOSCF        .... on
   Start iteration      SOSCFMaxIt      ....   150
   Startup grad/error   SOSCFStart      ....  0.003300
 Level Shifting         CNVShift        .... on
   Level shift para.    LevelShift      ....    0.2500
   Turn off err/grad.   ShiftErr        ....    0.0010
 Zerner damping         CNVZerner       .... off
 Static damping         CNVDamp         .... on
   Fraction old density DampFac         ....    0.7000
   Max. Damping (<1)    DampMax         ....    0.9800
   Min. Damping (>=0)   DampMin         ....    0.0000
   Turn off err/grad.   DampErr         ....    0.1000
 Fernandez-Rico         CNVRico         .... off

SCF Procedure:
 Maximum # iterations   MaxIter         ....   125
 SCF integral mode      SCFMode         .... Direct
   Integral package                     .... SHARK and LIBINT hybrid scheme
 Reset frequency        DirectResetFreq ....    20
 Integral Threshold     Thresh          ....  2.500e-11 Eh
 Primitive CutOff       TCut            ....  2.500e-12 Eh

Convergence Tolerance:
 Convergence Check Mode ConvCheckMode   .... Total+1el-Energy
 Convergence forced     ConvForced      .... 0
 Energy Change          TolE            ....  1.000e-08 Eh
 1-El. energy change                    ....  1.000e-05 Eh
 Orbital Gradient       TolG            ....  1.000e-05
 Orbital Rotation angle TolX            ....  1.000e-05
 DIIS Error             TolErr          ....  5.000e-07


Diagonalization of the overlap matrix:
Smallest eigenvalue                        ... 1.536e-04
Time for diagonalization                   ...    0.015 sec
Threshold for overlap eigenvalues          ... 1.000e-08
Number of eigenvalues below threshold      ... 0
Time for construction of square roots      ...    0.012 sec
Total time needed                          ...    0.027 sec

---------------------
INITIAL GUESS: MOREAD
---------------------
Guess MOs are being read from file: orca.ges
Input geometry compatible with but different from current geometry
Input basis set matches current basis set (good)
MOs were renormalized
MOs were reorthogonalized (Cholesky)
                      ------------------
                      INITIAL GUESS DONE (   0.0 sec)
                      ------------------
-------------------
DFT GRID GENERATION
-------------------

General Integration Accuracy     IntAcc      ... 4.388
Radial Grid Type                 RadialGrid  ... OptM3 with GC (2021)
Angular Grid (max. ang.)         AngularGrid ... 4 (Lebedev-302)
Angular grid pruning method      GridPruning ... 4 (adaptive)
Weight generation scheme         WeightScheme... Becke
Basis function cutoff            BFCut       ... 1.0000e-11
Integration weight cutoff        WCut        ... 1.0000e-14
Angular grids for H and He will be reduced by one unit
Partially contracted basis set               ... off
Rotationally invariant grid construction     ... off

Total number of grid points                  ...    98926
Total number of batches                      ...     1556
Average number of points per batch           ...       63
Average number of grid points per atom       ...     4497
Time for grid setup =    0.246 sec

--------------
SCF ITERATIONS
--------------
ITER       Energy         Delta-E        Max-DP      RMS-DP      [F,P]     Damp
               ***  Starting incremental Fock matrix formation  ***
  0   -484.7244362273   0.000000000000 0.20819080  0.00426194  0.5516930 0.7000
  1   -487.9435865533  -3.219150326011 0.14938608  0.00321736  0.4159501 0.7000
  2   -490.1823694297  -2.238782876448 0.10734924  0.00232297  0.2980298 0.7000
  3   -491.7580823128  -1.575712883013 0.07625140  0.00165746  0.2111702 0.7000
                               ***Turning on DIIS***
  4   -492.8617648890  -1.103682576272 0.05390740  0.00117542  0.1488294 0.7000
  5   -493.6330067178  -0.771241828718 0.03829746  0.00083803  0.1045050 0.7000
  6   -494.1722622205  -0.539255502793 0.08987048  0.00199041  0.0731750 0.0000
  7   -495.4293922637  -1.257130043129 0.00437152  0.00006945  0.0052713 0.0000
  8   -495.4292794766   0.000112787024 0.00467532  0.00004026  0.0085437 0.0000
                      *** Initiating the SOSCF procedure ***
                           *** Shutting down DIIS ***
                      *** Re-Reading the Fockian *** 
                      *** Removing any level shift *** 
ITER      Energy       Delta-E        Grad      Rot      Max-DP    RMS-DP
  9   -495.42948816  -0.0002086817  0.000382  0.000382  0.002187  0.000021
               *** Restarting incremental Fock matrix formation ***
 10   -495.42950584  -0.0000176866  0.000231  0.001139  0.002995  0.000024
 11   -495.42950061   0.0000052374  0.000572  0.000645  0.001607  0.000012
 12   -495.42950709  -0.0000064800  0.000030  0.000187  0.000163  0.000003
 13   -495.42950696   0.0000001256  0.000057  0.000077  0.000116  0.000002
 14   -495.42950716  -0.0000001972  0.000011  0.000050  0.000041  0.000001
 15   -495.42950716   0.0000000036  0.000016  0.000027  0.000039  0.000001
 16   -495.42950716   0.0000000005  0.000006  0.000021  0.000038  0.000001
 17   -495.42950716  -0.0000000005  0.000007  0.000010  0.000013  0.000000
                  ***Gradient check signals convergence***
              ***Rediagonalizing the Fockian in SOSCF/NRSCF***

               *****************************************************
               *                     SUCCESS                       *
               *           SCF CONVERGED AFTER  18 CYCLES          *
               *****************************************************


----------------
TOTAL SCF ENERGY
----------------

Total Energy       :         -495.42950716 Eh          -13481.32227 eV

Components:
Nuclear Repulsion  :          545.60600473 Eh           14846.69418 eV
Electronic Energy  :        -1041.03551189 Eh          -28328.01645 eV
One Electron Energy:        -1755.90588402 Eh          -47780.62822 eV
Two Electron Energy:          714.87037214 Eh           19452.61178 eV

Virial components:
Potential Energy   :         -988.62627175 Eh          -26901.88852 eV
Kinetic Energy     :          493.19676459 Eh           13420.56625 eV
Virial Ratio       :            2.00452708


DFT components:
N(Alpha)           :       38.999964676661 electrons
N(Beta)            :       38.999964676661 electrons
N(Total)           :       77.999929353321 electrons
E(X)               :      -64.867496694373 Eh       
E(C)               :       -2.590171590290 Eh       
E(XC)              :      -67.457668284663 Eh       
DFET-embed. en.    :        0.000000000000 Eh       

---------------
SCF CONVERGENCE
---------------

  Last Energy change         ...   -6.1941e-09  Tolerance :   1.0000e-08
  Last MAX-Density change    ...    5.3902e-06  Tolerance :   1.0000e-07
  Last RMS-Density change    ...    1.2925e-07  Tolerance :   5.0000e-09
  Last Orbital Gradient      ...    8.3306e-07  Tolerance :   1.0000e-05
  Last Orbital Rotation      ...    5.1431e-06  Tolerance :   1.0000e-05

             **** THE GBW FILE WAS UPDATED (orca.gbw) ****
             **** DENSITY orca.scfp WAS UPDATED ****
             **** ENERGY FILE WAS UPDATED (orca.en.tmp) ****
             **** THE GBW FILE WAS UPDATED (orca.gbw) ****
             **** DENSITY orca.scfp WAS UPDATED ****
----------------
ORBITAL ENERGIES
----------------

  NO   OCC          E(Eh)            E(eV) 
   0   2.0000     -18.717053      -509.3169 
   1   2.0000     -18.710358      -509.1347 
   2   2.0000     -14.027134      -381.6977 
   3   2.0000     -14.020409      -381.5147 
   4   2.0000      -9.977304      -271.4962 
   5   2.0000      -9.976837      -271.4836 
   6   2.0000      -9.935772      -270.3661 
   7   2.0000      -9.927972      -270.1539 
   8   2.0000      -9.894791      -269.2509 
   9   2.0000      -9.890260      -269.1276 
  10   2.0000      -0.952935       -25.9307 
  11   2.0000      -0.946850       -25.7651 
  12   2.0000      -0.857885       -23.3442 
  13   2.0000      -0.846762       -23.0416 
  14   2.0000      -0.711443       -19.3594 
  15   2.0000      -0.665334       -18.1047 
  16   2.0000      -0.648876       -17.6568 
  17   2.0000      -0.591658       -16.0998 
  18   2.0000      -0.543500       -14.7894 
  19   2.0000      -0.534734       -14.5509 
  20   2.0000      -0.493643       -13.4327 
  21   2.0000      -0.444827       -12.1044 
  22   2.0000      -0.422011       -11.4835 
  23   2.0000      -0.420165       -11.4333 
  24   2.0000      -0.409097       -11.1321 
  25   2.0000      -0.399959       -10.8835 
  26   2.0000      -0.383073       -10.4239 
  27   2.0000      -0.376473       -10.2443 
  28   2.0000      -0.366258        -9.9664 
  29   2.0000      -0.354207        -9.6385 
  30   2.0000      -0.348764        -9.4904 
  31   2.0000      -0.343184        -9.3385 
  32   2.0000      -0.328871        -8.9490 
  33   2.0000      -0.321419        -8.7462 
  34   2.0000      -0.308874        -8.4049 
  35   2.0000      -0.240843        -6.5537 
  36   2.0000      -0.233025        -6.3409 
  37   2.0000      -0.207172        -5.6374 
  38   2.0000      -0.201169        -5.4741 
  39   0.0000      -0.030504        -0.8301 
  40   0.0000      -0.021661        -0.5894 
  41   0.0000      -0.011581        -0.3151 
  42   0.0000       0.015364         0.4181 
  43   0.0000       0.027063         0.7364 
  44   0.0000       0.038030         1.0348 
  45   0.0000       0.054290         1.4773 
  46   0.0000       0.068481         1.8635 
  47   0.0000       0.070259         1.9118 
  48   0.0000       0.074430         2.0253 
  49   0.0000       0.085984         2.3397 
  50   0.0000       0.093200         2.5361 
  51   0.0000       0.095107         2.5880 
  52   0.0000       0.098804         2.6886 
  53   0.0000       0.108266         2.9461 
  54   0.0000       0.123899         3.3715 
  55   0.0000       0.134571         3.6619 
  56   0.0000       0.151326         4.1178 
  57   0.0000       0.152465         4.1488 
  58   0.0000       0.157484         4.2853 
  59   0.0000       0.171415         4.6644 
  60   0.0000       0.180755         4.9186 
  61   0.0000       0.187781         5.1098 
  62   0.0000       0.191785         5.2187 
  63   0.0000       0.204505         5.5649 
  64   0.0000       0.206554         5.6206 
  65   0.0000       0.219330         5.9683 
  66   0.0000       0.229636         6.2487 
  67   0.0000       0.250874         6.8266 
  68   0.0000       0.263997         7.1837 
  69   0.0000       0.269752         7.3403 
  70   0.0000       0.284119         7.7313 
  71   0.0000       0.304254         8.2792 
  72   0.0000       0.310913         8.4604 
  73   0.0000       0.315114         8.5747 
  74   0.0000       0.325871         8.8674 
  75   0.0000       0.336047         9.1443 
  76   0.0000       0.350324         9.5328 
  77   0.0000       0.354155         9.6370 
  78   0.0000       0.359701         9.7880 
  79   0.0000       0.370198        10.0736 
  80   0.0000       0.378482        10.2990 
  81   0.0000       0.383337        10.4311 
  82   0.0000       0.390241        10.6190 
  83   0.0000       0.395050        10.7499 
  84   0.0000       0.399736        10.8774 
  85   0.0000       0.403707        10.9854 
  86   0.0000       0.407838        11.0978 
  87   0.0000       0.419835        11.4243 
  88   0.0000       0.424958        11.5637 
  89   0.0000       0.430941        11.7265 
  90   0.0000       0.437231        11.8977 
  91   0.0000       0.444881        12.1058 
  92   0.0000       0.454437        12.3659 
  93   0.0000       0.457370        12.4457 
  94   0.0000       0.472443        12.8558 
  95   0.0000       0.479692        13.0531 
  96   0.0000       0.490393        13.3443 
  97   0.0000       0.500920        13.6307 
  98   0.0000       0.507623        13.8131 
  99   0.0000       0.528621        14.3845 
 100   0.0000       0.532259        14.4835 
 101   0.0000       0.546070        14.8593 
 102   0.0000       0.555337        15.1115 
 103   0.0000       0.566610        15.4183 
 104   0.0000       0.592542        16.1239 
 105   0.0000       0.600009        16.3271 
 106   0.0000       0.613275        16.6881 
 107   0.0000       0.640601        17.4316 
 108   0.0000       0.671612        18.2755 
 109   0.0000       0.675967        18.3940 
 110   0.0000       0.694095        18.8873 
 111   0.0000       0.711673        19.3656 
 112   0.0000       0.724358        19.7108 
 113   0.0000       0.734816        19.9954 
 114   0.0000       0.756029        20.5726 
 115   0.0000       0.767402        20.8821 
 116   0.0000       0.778104        21.1733 
 117   0.0000       0.804371        21.8881 
 118   0.0000       0.811761        22.0892 
 119   0.0000       0.821569        22.3560 
 120   0.0000       0.846789        23.0423 
 121   0.0000       0.860343        23.4111 
 122   0.0000       0.874256        23.7897 
 123   0.0000       0.887826        24.1590 
 124   0.0000       0.895974        24.3807 
 125   0.0000       0.925661        25.1885 
 126   0.0000       0.931668        25.3520 
 127   0.0000       0.942031        25.6340 
 128   0.0000       0.948232        25.8027 
 129   0.0000       0.957545        26.0561 
 130   0.0000       0.975460        26.5436 
 131   0.0000       0.984975        26.8025 
 132   0.0000       0.998476        27.1699 
 133   0.0000       1.012036        27.5389 
 134   0.0000       1.064766        28.9738 
 135   0.0000       1.076682        29.2980 
 136   0.0000       1.108568        30.1657 
 137   0.0000       1.120683        30.4953 
 138   0.0000       1.147305        31.2198 
 139   0.0000       1.169910        31.8349 
 140   0.0000       1.182341        32.1731 
 141   0.0000       1.220049        33.1992 
 142   0.0000       1.243090        33.8262 
 143   0.0000       1.255599        34.1666 
 144   0.0000       1.279529        34.8178 
 145   0.0000       1.299403        35.3585 
 146   0.0000       1.328512        36.1506 
 147   0.0000       1.337787        36.4030 
 148   0.0000       1.365675        37.1619 
 149   0.0000       1.376940        37.4684 
 150   0.0000       1.395850        37.9830 
 151   0.0000       1.407301        38.2946 
 152   0.0000       1.425992        38.8032 
 153   0.0000       1.427828        38.8532 
 154   0.0000       1.431766        38.9603 
 155   0.0000       1.442977        39.2654 
 156   0.0000       1.449396        39.4401 
 157   0.0000       1.454590        39.5814 
 158   0.0000       1.460404        39.7396 
 159   0.0000       1.467657        39.9370 
 160   0.0000       1.472829        40.0777 
 161   0.0000       1.495858        40.7044 
 162   0.0000       1.501443        40.8563 
 163   0.0000       1.512495        41.1571 
 164   0.0000       1.517229        41.2859 
 165   0.0000       1.544424        42.0259 
 166   0.0000       1.547516        42.1100 
 167   0.0000       1.569794        42.7163 
 168   0.0000       1.573473        42.8164 
 169   0.0000       1.590736        43.2861 
 170   0.0000       1.594514        43.3889 
 171   0.0000       1.636186        44.5229 
 172   0.0000       1.650077        44.9009 
 173   0.0000       1.668209        45.3943 
 174   0.0000       1.676542        45.6210 
 175   0.0000       1.682975        45.7961 
 176   0.0000       1.698609        46.2215 
 177   0.0000       1.732799        47.1519 
 178   0.0000       1.755852        47.7792 
 179   0.0000       1.772488        48.2319 
 180   0.0000       1.794610        48.8338 
 181   0.0000       1.813548        49.3492 
 182   0.0000       1.821417        49.5633 
 183   0.0000       1.846112        50.2352 
 184   0.0000       1.868051        50.8323 
 185   0.0000       1.880135        51.1611 
 186   0.0000       1.893555        51.5262 
 187   0.0000       1.913933        52.0808 
 188   0.0000       1.940450        52.8023 
 189   0.0000       1.963589        53.4320 
 190   0.0000       1.969064        53.5810 
 191   0.0000       1.989575        54.1391 
 192   0.0000       2.015028        54.8317 
 193   0.0000       2.030001        55.2391 
 194   0.0000       2.037000        55.4296 
 195   0.0000       2.042592        55.5818 
 196   0.0000       2.059638        56.0456 
 197   0.0000       2.078290        56.5531 
 198   0.0000       2.099913        57.1415 
 199   0.0000       2.122502        57.7562 
 200   0.0000       2.152869        58.5826 
 201   0.0000       2.164076        58.8875 
 202   0.0000       2.181970        59.3744 
 203   0.0000       2.182415        59.3865 
 204   0.0000       2.188900        59.5630 
 205   0.0000       2.209275        60.1174 
 206   0.0000       2.216731        60.3203 
 207   0.0000       2.227067        60.6016 
 208   0.0000       2.238082        60.9013 
 209   0.0000       2.261813        61.5471 
 210   0.0000       2.272415        61.8356 
 211   0.0000       2.302412        62.6518 
 212   0.0000       2.306002        62.7495 
 213   0.0000       2.338840        63.6431 
 214   0.0000       2.353034        64.0293 
 215   0.0000       2.370869        64.5146 
 216   0.0000       2.390350        65.0447 
 217   0.0000       2.410875        65.6033 
 218   0.0000       2.418206        65.8027 
 219   0.0000       2.432177        66.1829 
 220   0.0000       2.446280        66.5667 
 221   0.0000       2.462499        67.0080 
 222   0.0000       2.482879        67.5626 
 223   0.0000       2.488851        67.7251 
 224   0.0000       2.500979        68.0551 
 225   0.0000       2.509159        68.2777 
 226   0.0000       2.530102        68.8476 
 227   0.0000       2.546817        69.3024 
 228   0.0000       2.561196        69.6937 
 229   0.0000       2.582488        70.2731 
 230   0.0000       2.608549        70.9822 
 231   0.0000       2.618009        71.2396 
 232   0.0000       2.626039        71.4582 
 233   0.0000       2.645618        71.9909 
 234   0.0000       2.662585        72.4526 
 235   0.0000       2.689315        73.1800 
 236   0.0000       2.708578        73.7042 
 237   0.0000       2.741536        74.6010 
 238   0.0000       2.779073        75.6224 
 239   0.0000       2.794618        76.0454 
 240   0.0000       2.818637        76.6990 
 241   0.0000       2.839884        77.2772 
 242   0.0000       2.859672        77.8156 
 243   0.0000       2.879293        78.3495 
 244   0.0000       2.887583        78.5751 
 245   0.0000       2.900584        78.9289 
 246   0.0000       2.908581        79.1465 
 247   0.0000       2.930015        79.7298 
 248   0.0000       2.936148        79.8966 
 249   0.0000       2.949159        80.2507 
 250   0.0000       2.960484        80.5589 
 251   0.0000       2.983026        81.1723 
 252   0.0000       2.988840        81.3305 
 253   0.0000       2.996834        81.5480 
 254   0.0000       3.015124        82.0457 
 255   0.0000       3.034054        82.5608 
 256   0.0000       3.037960        82.6671 
 257   0.0000       3.048037        82.9413 
 258   0.0000       3.070217        83.5448 
 259   0.0000       3.084560        83.9351 
 260   0.0000       3.100046        84.3565 
 261   0.0000       3.127522        85.1042 
 262   0.0000       3.137388        85.3727 
 263   0.0000       3.162391        86.0530 
 264   0.0000       3.167977        86.2050 
 265   0.0000       3.176702        86.4425 
 266   0.0000       3.194991        86.9401 
 267   0.0000       3.201113        87.1067 
 268   0.0000       3.208028        87.2949 
 269   0.0000       3.222154        87.6793 
 270   0.0000       3.231185        87.9250 
 271   0.0000       3.238664        88.1285 
 272   0.0000       3.244634        88.2910 
 273   0.0000       3.277446        89.1838 
 274   0.0000       3.279819        89.2484 
 275   0.0000       3.302793        89.8736 
 276   0.0000       3.310578        90.0854 
 277   0.0000       3.346336        91.0584 
 278   0.0000       3.355053        91.2956 
 279   0.0000       3.383648        92.0738 
 280   0.0000       3.397440        92.4490 
 281   0.0000       3.417004        92.9814 
 282   0.0000       3.427925        93.2786 
 283   0.0000       3.439458        93.5924 
 284   0.0000       3.443258        93.6958 
 285   0.0000       3.474183        94.5373 
 286   0.0000       3.511452        95.5515 
 287   0.0000       3.540155        96.3325 
 288   0.0000       3.579197        97.3949 
 289   0.0000       3.595119        97.8282 
 290   0.0000       3.629293        98.7581 
 291   0.0000       3.642073        99.1059 
 292   0.0000       3.668421        99.8228 
 293   0.0000       3.697880       100.6244 
 294   0.0000       3.729439       101.4832 
 295   0.0000       3.737666       101.7071 
 296   0.0000       3.750191       102.0479 
 297   0.0000       3.790542       103.1459 
 298   0.0000       3.804238       103.5186 
 299   0.0000       3.826491       104.1241 
 300   0.0000       3.858224       104.9876 
 301   0.0000       3.887562       105.7859 
 302   0.0000       3.892712       105.9261 
 303   0.0000       3.902987       106.2057 
 304   0.0000       3.931753       106.9884 
 305   0.0000       3.981583       108.3444 
 306   0.0000       4.014777       109.2476 
 307   0.0000       4.024474       109.5115 
 308   0.0000       4.095013       111.4310 
 309   0.0000       4.123750       112.2129 
 310   0.0000       4.136445       112.5584 
 311   0.0000       4.164668       113.3264 
 312   0.0000       4.229921       115.1020 
 313   0.0000       4.234410       115.2242 
 314   0.0000       4.242907       115.4554 
 315   0.0000       4.275866       116.3522 
 316   0.0000       4.299732       117.0016 
 317   0.0000       4.332730       117.8996 
 318   0.0000       4.357225       118.5661 
 319   0.0000       4.378654       119.1492 
 320   0.0000       4.419066       120.2489 
 321   0.0000       4.450297       121.0987 
 322   0.0000       4.548172       123.7620 
 323   0.0000       4.567986       124.3012 
 324   0.0000       4.643353       126.3521 
 325   0.0000       4.657096       126.7260 
 326   0.0000       4.669970       127.0763 
 327   0.0000       4.714277       128.2820 
 328   0.0000       4.735379       128.8562 
 329   0.0000       4.801064       130.6436 
 330   0.0000       4.853630       132.0740 
 331   0.0000       4.868056       132.4665 
 332   0.0000       4.958413       134.9253 
 333   0.0000       4.960733       134.9884 
 334   0.0000       4.986657       135.6938 
 335   0.0000       5.014375       136.4481 
 336   0.0000       5.064489       137.8118 
 337   0.0000       5.070494       137.9752 
 338   0.0000       5.078392       138.1901 
 339   0.0000       5.109272       139.0304 
 340   0.0000       5.146162       140.0342 
 341   0.0000       5.154463       140.2601 
 342   0.0000       5.198159       141.4491 
 343   0.0000       5.204356       141.6177 
 344   0.0000       5.279081       143.6511 
 345   0.0000       5.296867       144.1351 
 346   0.0000       5.334464       145.1581 
 347   0.0000       5.397568       146.8753 
 348   0.0000       5.420805       147.5076 
 349   0.0000       5.492865       149.4684 
 350   0.0000       5.542975       150.8320 
 351   0.0000       5.579631       151.8295 
 352   0.0000       5.629100       153.1756 
 353   0.0000       5.692007       154.8874 
 354   0.0000       5.786900       157.4696 
 355   0.0000       5.811770       158.1463 
 356   0.0000       6.020582       163.8284 
 357   0.0000       6.029997       164.0846 
 358   0.0000       6.209288       168.9633 
 359   0.0000       6.238286       169.7524 
 360   0.0000       6.283453       170.9814 
 361   0.0000       6.288114       171.1083 
 362   0.0000       6.402986       174.2341 
 363   0.0000       6.430044       174.9704 
 364   0.0000       6.558271       178.4596 
 365   0.0000       6.581686       179.0968 
 366   0.0000       6.705751       182.4728 
 367   0.0000       6.709140       182.5650 
 368   0.0000       6.939661       188.8378 
 369   0.0000       6.948525       189.0790 
 370   0.0000       6.968390       189.6195 
 371   0.0000       6.972265       189.7250 
 372   0.0000      21.994983       598.5139 
 373   0.0000      22.023726       599.2960 
 374   0.0000      22.048710       599.9759 
 375   0.0000      22.375444       608.8668 
 376   0.0000      22.993183       625.6763 
 377   0.0000      23.031857       626.7287 
 378   0.0000      32.007619       870.9716 
 379   0.0000      32.234805       877.1536 
 380   0.0000      43.467818      1182.8195 
 381   0.0000      43.527691      1184.4487 

                    ********************************
                    * MULLIKEN POPULATION ANALYSIS *
                    ********************************

-----------------------
MULLIKEN ATOMIC CHARGES
-----------------------
   0 C :   -0.270757
   1 N :   -0.244731
   2 C :    0.175660
   3 O :   -0.303329
   4 C :    0.039628
   5 C :   -0.351774
   6 N :   -0.237280
   7 C :    0.219891
   8 C :   -0.363994
   9 O :   -0.317723
  10 H :    0.141454
  11 H :    0.124822
  12 H :    0.142265
  13 H :    0.206396
  14 H :    0.116373
  15 H :    0.081932
  16 H :    0.135596
  17 H :    0.136888
  18 H :    0.189302
  19 H :    0.126781
  20 H :    0.141664
  21 H :    0.110938
Sum of atomic charges:   -0.0000000

--------------------------------
MULLIKEN REDUCED ORBITAL CHARGES
--------------------------------
  0 C s       :     3.246877  s :     3.246877
      pz      :     1.076901  p :     2.950655
      px      :     0.949517
      py      :     0.924237
      dz2     :     0.006927  d :     0.067782
      dxz     :     0.017973
      dyz     :     0.007186
      dx2y2   :     0.026747
      dxy     :     0.008948
      f0      :     0.000379  f :     0.005444
      f+1     :     0.000864
      f-1     :     0.000397
      f+2     :     0.000094
      f-2     :     0.000902
      f+3     :     0.001582
      f-3     :     0.001224
  1 N s       :     3.417894  s :     3.417894
      pz      :     1.176055  p :     3.767592
      px      :     1.279696
      py      :     1.311841
      dz2     :     0.010597  d :     0.055385
      dxz     :     0.010257
      dyz     :     0.011162
      dx2y2   :     0.013627
      dxy     :     0.009741
      f0      :     0.000426  f :     0.003861
      f+1     :     0.000557
      f-1     :     0.000553
      f+2     :     0.000458
      f-2     :     0.000700
      f+3     :     0.000562
      f-3     :     0.000604
  2 C s       :     3.103423  s :     3.103423
      pz      :     0.765875  p :     2.466283
      px      :     0.840192
      py      :     0.860217
      dz2     :     0.060194  d :     0.234330
      dxz     :     0.062586
      dyz     :     0.049784
      dx2y2   :     0.030563
      dxy     :     0.031202
      f0      :     0.003801  f :     0.020304
      f+1     :     0.004304
      f-1     :     0.002642
      f+2     :     0.002793
      f-2     :     0.003673
      f+3     :     0.001373
      f-3     :     0.001718
  3 O s       :     3.801958  s :     3.801958
      pz      :     1.355045  p :     4.469525
      px      :     1.617981
      py      :     1.496499
      dz2     :     0.010066  d :     0.030126
      dxz     :     0.007077
      dyz     :     0.008206
      dx2y2   :     0.002263
      dxy     :     0.002514
      f0      :     0.000503  f :     0.001720
      f+1     :     0.000288
      f-1     :     0.000350
      f+2     :     0.000230
      f-2     :     0.000256
      f+3     :     0.000052
      f-3     :     0.000041
  4 C s       :     3.128091  s :     3.128091
      pz      :     0.962542  p :     2.674497
      px      :     0.954802
      py      :     0.757153
      dz2     :     0.023171  d :     0.147913
      dxz     :     0.032009
      dyz     :     0.037013
      dx2y2   :     0.024650
      dxy     :     0.031069
      f0      :     0.001605  f :     0.009872
      f+1     :     0.001091
      f-1     :     0.001210
      f+2     :     0.001072
      f-2     :     0.001434
      f+3     :     0.001384
      f-3     :     0.002075
  5 C s       :     3.257975  s :     3.257975
      pz      :     0.951100  p :     3.047118
      px      :     1.005803
      py      :     1.090215
      dz2     :     0.013665  d :     0.043730
      dxz     :     0.011204
      dyz     :     0.007651
      dx2y2   :     0.002883
      dxy     :     0.008326
      f0      :     0.000645  f :     0.002951
      f+1     :     0.000855
      f-1     :     0.000323
      f+2     :     0.000213
      f-2     :     0.000319
      f+3     :     0.000577
      f-3     :     0.000020
  6 N s       :     3.415688  s :     3.415688
      pz      :     1.454909  p :     3.759936
      px      :     1.197054
      py      :     1.107973
      dz2     :     0.006206  d :     0.057632
      dxz     :     0.008377
      dyz     :     0.013627
      dx2y2   :     0.016630
      dxy     :     0.012791
      f0      :     0.000544  f :     0.004024
      f+1     :     0.000437
      f-1     :     0.000594
      f+2     :     0.000726
      f-2     :     0.000579
      f+3     :     0.000498
      f-3     :     0.000645
  7 C s       :     3.091382  s :     3.091382
      pz      :     0.787853  p :     2.425111
      px      :     0.776345
      py      :     0.860914
      dz2     :     0.049629  d :     0.242904
      dxz     :     0.035175
      dyz     :     0.037774
      dx2y2   :     0.041946
      dxy     :     0.078380
      f0      :     0.001414  f :     0.020712
      f+1     :     0.003394
      f-1     :     0.002020
      f+2     :     0.003014
      f-2     :     0.003828
      f+3     :     0.002444
      f-3     :     0.004598
  8 C s       :     3.248850  s :     3.248850
      pz      :     1.049247  p :     3.071626
      px      :     1.050253
      py      :     0.972126
      dz2     :     0.005756  d :     0.040370
      dxz     :     0.004580
      dyz     :     0.008822
      dx2y2   :     0.010510
      dxy     :     0.010704
      f0      :     0.000561  f :     0.003147
      f+1     :     0.000130
      f-1     :     0.000299
      f+2     :     0.000092
      f-2     :     0.000715
      f+3     :     0.000553
      f-3     :     0.000798
  9 O s       :     3.807127  s :     3.807127
      pz      :     1.400825  p :     4.478553
      px      :     1.356471
      py      :     1.721258
      dz2     :     0.006634  d :     0.030290
      dxz     :     0.008115
      dyz     :     0.002798
      dx2y2   :     0.006580
      dxy     :     0.006162
      f0      :     0.000109  f :     0.001753
      f+1     :     0.000494
      f-1     :     0.000036
      f+2     :     0.000293
      f-2     :     0.000274
      f+3     :     0.000264
      f-3     :     0.000283
 10 H s       :     0.838760  s :     0.838760
      pz      :     0.004402  p :     0.019786
      px      :     0.005022
      py      :     0.010361
 11 H s       :     0.854439  s :     0.854439
      pz      :     0.008476  p :     0.020739
      px      :     0.008136
      py      :     0.004126
 12 H s       :     0.836396  s :     0.836396
      pz      :     0.009885  p :     0.021338
      px      :     0.007206
      py      :     0.004247
 13 H s       :     0.754794  s :     0.754794
      pz      :     0.017012  p :     0.038810
      px      :     0.008699
      py      :     0.013099
 14 H s       :     0.861472  s :     0.861472
      pz      :     0.010257  p :     0.022155
      px      :     0.008162
      py      :     0.003736
 15 H s       :     0.895677  s :     0.895677
      pz      :     0.009790  p :     0.022392
      px      :     0.007481
      py      :     0.005121
 16 H s       :     0.844310  s :     0.844310
      pz      :     0.003956  p :     0.020094
      px      :     0.007102
      py      :     0.009037
 17 H s       :     0.842339  s :     0.842339
      pz      :     0.004845  p :     0.020773
      px      :     0.006819
      py      :     0.009109
 18 H s       :     0.771549  s :     0.771549
      pz      :     0.013968  p :     0.039149
      px      :     0.018085
      py      :     0.007097
 19 H s       :     0.852478  s :     0.852478
      pz      :     0.005767  p :     0.020741
      px      :     0.010152
      py      :     0.004822
 20 H s       :     0.836494  s :     0.836494
      pz      :     0.006252  p :     0.021842
      px      :     0.006521
      py      :     0.009069
 21 H s       :     0.867605  s :     0.867605
      pz      :     0.010400  p :     0.021457
      px      :     0.005106
      py      :     0.005951


                     *******************************
                     * LOEWDIN POPULATION ANALYSIS *
                     *******************************

----------------------
LOEWDIN ATOMIC CHARGES
----------------------
   0 C :   -0.319540
   1 N :    0.093168
   2 C :   -0.453670
   3 O :    0.097873
   4 C :   -0.290305
   5 C :   -0.291687
   6 N :    0.150766
   7 C :   -0.498239
   8 C :   -0.275987
   9 O :    0.096155
  10 H :    0.131348
  11 H :    0.118819
  12 H :    0.120769
  13 H :    0.175801
  14 H :    0.183985
  15 H :    0.105843
  16 H :    0.136439
  17 H :    0.136450
  18 H :    0.177430
  19 H :    0.143815
  20 H :    0.132816
  21 H :    0.127952

-------------------------------
LOEWDIN REDUCED ORBITAL CHARGES
-------------------------------
  0 C s       :     2.850841  s :     2.850841
      pz      :     1.111276  p :     3.114106
      px      :     1.002927
      py      :     0.999903
      dz2     :     0.038909  d :     0.316752
      dxz     :     0.086401
      dyz     :     0.027343
      dx2y2   :     0.094684
      dxy     :     0.069416
      f0      :     0.003013  f :     0.037841
      f+1     :     0.004029
      f-1     :     0.004865
      f+2     :     0.003478
      f-2     :     0.005453
      f+3     :     0.009401
      f-3     :     0.007603
  1 N s       :     2.948268  s :     2.948268
      pz      :     1.194321  p :     3.725689
      px      :     1.266409
      py      :     1.264959
      dz2     :     0.043611  d :     0.218695
      dxz     :     0.044838
      dyz     :     0.045598
      dx2y2   :     0.044907
      dxy     :     0.039741
      f0      :     0.001607  f :     0.014179
      f+1     :     0.002446
      f-1     :     0.001596
      f+2     :     0.002035
      f-2     :     0.002560
      f+3     :     0.001611
      f-3     :     0.002325
  2 C s       :     2.757826  s :     2.757826
      pz      :     0.931173  p :     2.707277
      px      :     0.883139
      py      :     0.892965
      dz2     :     0.221405  d :     0.864646
      dxz     :     0.224415
      dyz     :     0.191503
      dx2y2   :     0.107736
      dxy     :     0.119586
      f0      :     0.022017  f :     0.123921
      f+1     :     0.026803
      f-1     :     0.018265
      f+2     :     0.018440
      f-2     :     0.019617
      f+3     :     0.008322
      f-3     :     0.010456
  3 O s       :     3.408377  s :     3.408377
      pz      :     1.451367  p :     4.420039
      px      :     1.510925
      py      :     1.457747
      dz2     :     0.021927  d :     0.067781
      dxz     :     0.013984
      dyz     :     0.022378
      dx2y2   :     0.004855
      dxy     :     0.004637
      f0      :     0.001377  f :     0.005930
      f+1     :     0.000906
      f-1     :     0.001811
      f+2     :     0.000858
      f-2     :     0.000764
      f+3     :     0.000102
      f-3     :     0.000113
  4 C s       :     2.752370  s :     2.752370
      pz      :     1.027710  p :     2.919921
      px      :     0.995901
      py      :     0.896310
      dz2     :     0.096928  d :     0.553263
      dxz     :     0.120141
      dyz     :     0.107945
      dx2y2   :     0.104032
      dxy     :     0.124218
      f0      :     0.008884  f :     0.064750
      f+1     :     0.005417
      f-1     :     0.009416
      f+2     :     0.009435
      f-2     :     0.009252
      f+3     :     0.009889
      f-3     :     0.012457
  5 C s       :     2.853042  s :     2.853042
      pz      :     1.036831  p :     3.176075
      px      :     1.061353
      py      :     1.077891
      dz2     :     0.068443  d :     0.239992
      dxz     :     0.072159
      dyz     :     0.029070
      dx2y2   :     0.014627
      dxy     :     0.055692
      f0      :     0.003930  f :     0.022578
      f+1     :     0.003888
      f-1     :     0.004454
      f+2     :     0.004934
      f-2     :     0.001773
      f+3     :     0.003108
      f-3     :     0.000491
  6 N s       :     2.926082  s :     2.926082
      pz      :     1.330503  p :     3.681202
      px      :     1.189063
      py      :     1.161636
      dz2     :     0.021492  d :     0.227123
      dxz     :     0.031302
      dyz     :     0.048782
      dx2y2   :     0.070716
      dxy     :     0.054832
      f0      :     0.001962  f :     0.014826
      f+1     :     0.000947
      f-1     :     0.001806
      f+2     :     0.002444
      f-2     :     0.002462
      f+3     :     0.001866
      f-3     :     0.003340
  7 C s       :     2.753830  s :     2.753830
      pz      :     0.839834  p :     2.726220
      px      :     0.935668
      py      :     0.950718
      dz2     :     0.159234  d :     0.889209
      dxz     :     0.158209
      dyz     :     0.135422
      dx2y2   :     0.171212
      dxy     :     0.265133
      f0      :     0.010618  f :     0.128980
      f+1     :     0.017297
      f-1     :     0.012434
      f+2     :     0.020584
      f-2     :     0.021733
      f+3     :     0.017011
      f-3     :     0.029302
  8 C s       :     2.845568  s :     2.845568
      pz      :     1.077045  p :     3.188072
      px      :     1.070852
      py      :     1.040175
      dz2     :     0.034227  d :     0.218822
      dxz     :     0.030440
      dyz     :     0.046808
      dx2y2   :     0.050311
      dxy     :     0.057037
      f0      :     0.003902  f :     0.023525
      f+1     :     0.001222
      f-1     :     0.003360
      f+2     :     0.002000
      f-2     :     0.003357
      f+3     :     0.004379
      f-3     :     0.005304
  9 O s       :     3.403046  s :     3.403046
      pz      :     1.387288  p :     4.425842
      px      :     1.443340
      py      :     1.595213
      dz2     :     0.010281  d :     0.068840
      dxz     :     0.022318
      dyz     :     0.005617
      dx2y2   :     0.015468
      dxy     :     0.015156
      f0      :     0.000524  f :     0.006118
      f+1     :     0.001296
      f-1     :     0.000052
      f+2     :     0.001460
      f-2     :     0.000969
      f+3     :     0.000829
      f-3     :     0.000987
 10 H s       :     0.811717  s :     0.811717
      pz      :     0.012183  p :     0.056935
      px      :     0.015297
      py      :     0.029456
 11 H s       :     0.820153  s :     0.820153
      pz      :     0.026293  p :     0.061028
      px      :     0.022807
      py      :     0.011929
 12 H s       :     0.815312  s :     0.815312
      pz      :     0.030337  p :     0.063919
      px      :     0.020442
      py      :     0.013140
 13 H s       :     0.717668  s :     0.717668
      pz      :     0.047427  p :     0.106532
      px      :     0.023012
      py      :     0.036093
 14 H s       :     0.760413  s :     0.760413
      pz      :     0.025789  p :     0.055602
      px      :     0.020819
      py      :     0.008994
 15 H s       :     0.828068  s :     0.828068
      pz      :     0.026593  p :     0.066090
      px      :     0.024174
      py      :     0.015323
 16 H s       :     0.806558  s :     0.806558
      pz      :     0.010793  p :     0.057003
      px      :     0.019446
      py      :     0.026764
 17 H s       :     0.804643  s :     0.804643
      pz      :     0.012747  p :     0.058907
      px      :     0.018788
      py      :     0.027372
 18 H s       :     0.714660  s :     0.714660
      pz      :     0.038843  p :     0.107910
      px      :     0.049816
      py      :     0.019251
 19 H s       :     0.796877  s :     0.796877
      pz      :     0.016904  p :     0.059308
      px      :     0.028372
      py      :     0.014032
 20 H s       :     0.803351  s :     0.803351
      pz      :     0.018458  p :     0.063833
      px      :     0.020310
      py      :     0.025065
 21 H s       :     0.809006  s :     0.809006
      pz      :     0.032185  p :     0.063042
      px      :     0.015027
      py      :     0.015830


                      *****************************
                      * MAYER POPULATION ANALYSIS *
                      *****************************

  NA   - Mulliken gross atomic population
  ZA   - Total nuclear charge
  QA   - Mulliken gross atomic charge
  VA   - Mayer's total valence
  BVA  - Mayer's bonded valence
  FA   - Mayer's free valence

  ATOM       NA         ZA         QA         VA         BVA        FA
  0 C      6.2708     6.0000    -0.2708     3.9221     3.9221    -0.0000
  1 N      7.2447     7.0000    -0.2447     3.1017     3.1017     0.0000
  2 C      5.8243     6.0000     0.1757     4.3611     4.3611     0.0000
  3 O      8.3033     8.0000    -0.3033     2.2306     2.2306     0.0000
  4 C      5.9604     6.0000     0.0396     3.7273     3.7273    -0.0000
  5 C      6.3518     6.0000    -0.3518     3.9073     3.9073     0.0000
  6 N      7.2373     7.0000    -0.2373     3.0859     3.0859    -0.0000
  7 C      5.7801     6.0000     0.2199     4.2587     4.2587    -0.0000
  8 C      6.3640     6.0000    -0.3640     3.8079     3.8079    -0.0000
  9 O      8.3177     8.0000    -0.3177     2.2018     2.2018     0.0000
 10 H      0.8585     1.0000     0.1415     0.9677     0.9677     0.0000
 11 H      0.8752     1.0000     0.1248     0.9598     0.9598    -0.0000
 12 H      0.8577     1.0000     0.1423     0.9629     0.9629     0.0000
 13 H      0.7936     1.0000     0.2064     0.9661     0.9661    -0.0000
 14 H      0.8836     1.0000     0.1164     1.0444     1.0444    -0.0000
 15 H      0.9181     1.0000     0.0819     0.9847     0.9847     0.0000
 16 H      0.8644     1.0000     0.1356     0.9736     0.9736     0.0000
 17 H      0.8631     1.0000     0.1369     0.9769     0.9769    -0.0000
 18 H      0.8107     1.0000     0.1893     0.9797     0.9797     0.0000
 19 H      0.8732     1.0000     0.1268     0.9788     0.9788    -0.0000
 20 H      0.8583     1.0000     0.1417     1.0020     1.0020     0.0000
 21 H      0.8891     1.0000     0.1109     0.9763     0.9763     0.0000

  Mayer bond orders larger than 0.100000
B(  0-C ,  1-N ) :   0.9582 B(  0-C , 10-H ) :   0.9582 B(  0-C , 11-H ) :   0.9571 
B(  0-C , 12-H ) :   0.9650 B(  1-N ,  2-C ) :   1.1903 B(  1-N , 13-H ) :   0.9090 
B(  2-C ,  3-O ) :   2.0949 B(  2-C ,  4-C ) :   0.9552 B(  4-C ,  5-C ) :   0.9762 
B(  4-C ,  6-N ) :   0.8756 B(  4-C , 14-H ) :   0.9067 B(  5-C , 15-H ) :   0.9497 
B(  5-C , 16-H ) :   0.9609 B(  5-C , 17-H ) :   0.9690 B(  6-N ,  7-C ) :   1.1868 
B(  6-N , 18-H ) :   0.9084 B(  7-C ,  8-C ) :   0.9697 B(  7-C ,  9-O ) :   2.0398 
B(  8-C , 19-H ) :   0.9434 B(  8-C , 20-H ) :   0.9725 B(  8-C , 21-H ) :   0.9554 


-------
TIMINGS
-------

Total SCF time: 0 days 0 hours 0 min 5 sec 

Total time                  ....       5.479 sec
Sum of individual times     ....       5.240 sec  ( 95.6%)

Fock matrix formation       ....       4.252 sec  ( 77.6%)
  Split-RI-J                ....       1.451 sec  ( 34.1% of F)
  XC integration            ....       2.738 sec  ( 64.4% of F)
    Basis function eval.    ....       0.462 sec  ( 16.9% of XC)
    Density eval.           ....       0.952 sec  ( 34.8% of XC)
    XC-Functional eval.     ....       0.053 sec  (  1.9% of XC)
    XC-Potential eval.      ....       0.674 sec  ( 24.6% of XC)
Diagonalization             ....       0.291 sec  (  5.3%)
Density matrix formation    ....       0.011 sec  (  0.2%)
Population analysis         ....       0.026 sec  (  0.5%)
Initial guess               ....       0.030 sec  (  0.5%)
Orbital Transformation      ....       0.000 sec  (  0.0%)
Orbital Orthonormalization  ....       0.025 sec  (  0.5%)
DIIS solution               ....       0.136 sec  (  2.5%)
SOSCF solution              ....       0.247 sec  (  4.5%)
Grid generation             ....       0.246 sec  (  4.5%)

Maximum memory used throughout the entire SCF-calculation: 44.7 MB

-------------------------   --------------------
FINAL SINGLE POINT ENERGY      -495.429507161832
-------------------------   --------------------



           ************************************************************
           *        Program running with 8 parallel MPI-processes     *
           *              working on a common directory               *
           ************************************************************
------------------------------------------------------------------------------
                         ORCA SCF GRADIENT CALCULATION
------------------------------------------------------------------------------

Gradient of the Kohn-Sham DFT energy:
Kohn-Sham wavefunction type      ... RKS
Hartree-Fock exchange scaling    ...    0.000
Number of operators              ...    1
Number of atoms                  ...   22
Basis set dimensions             ...  382
Integral neglect threshold       ... 2.5e-11
Integral primitive cutoff        ... 2.5e-12
SHARK Integral package           ... ON

Nuc. rep. gradient       (SHARK) ... done (  0.0 sec)
HCore & Overlap gradient (SHARK) ... done (  0.1 sec)
RI-J gradient            (SHARK) ... done (  0.3 sec)
Exchange-correlation gradient    ... done

------------------
CARTESIAN GRADIENT
------------------

   1   C   :   -0.002971542   -0.007769718    0.009762550
   2   N   :   -0.003912899    0.002400104   -0.002898755
   3   C   :   -0.000457816    0.004294635    0.000680691
   4   O   :    0.003700410   -0.004577239   -0.001795624
   5   C   :   -0.026955507   -0.033867374   -0.019771795
   6   C   :   -0.014709934    0.014751558   -0.011349943
   7   N   :    0.005464056   -0.001176006    0.014497865
   8   C   :    0.001393388    0.012120727   -0.024248683
   9   C   :    0.013538823   -0.019527562    0.021124891
  10   O   :   -0.019196815   -0.008013084    0.001470767
  11   H   :    0.008056296    0.016291531   -0.000119146
  12   H   :   -0.007349050    0.000529349    0.006720974
  13   H   :   -0.001797587   -0.001069730   -0.013904384
  14   H   :    0.004918220   -0.007124687    0.000643162
  15   H   :    0.008849257    0.007767253    0.015253956
  16   H   :    0.010530133   -0.002900102    0.015150911
  17   H   :    0.012602658    0.013582772   -0.006599877
  18   H   :    0.000471922   -0.010537222   -0.000024338
  19   H   :    0.006271418    0.009314194    0.002165889
  20   H   :   -0.006049765    0.015152244    0.001340718
  21   H   :   -0.002748040   -0.002046056   -0.013244664
  22   H   :    0.010352375    0.002404412    0.005144834

Difference to translation invariance:
           :    0.0000000000   -0.0000000000    0.0000000000

Difference to rotation invariance:
           :    0.0000382732   -0.0000011150   -0.0000859681

Norm of the cartesian gradient     ...    0.0902710605
RMS gradient                       ...    0.0111115994
MAX gradient                       ...    0.0338673742

-------
TIMINGS
-------

Total SCF gradient time            ...        1.699 sec

One electron gradient       ....       0.056 sec  (  3.3%)
RI-J Coulomb gradient       ....       0.297 sec  ( 17.5%)
XC gradient                 ....       1.261 sec  ( 74.2%)

Maximum memory used throughout the entire SCFGRAD-calculation: 38.6 MB

                            ***************************************
                            *     ORCA property calculations      *
                            ***************************************

                                    ---------------------
                                    Active property flags
                                    ---------------------
   (+) Dipole Moment


------------------------------------------------------------------------------
                       ORCA ELECTRIC PROPERTIES CALCULATION
------------------------------------------------------------------------------

Dipole Moment Calculation                       ... on
Quadrupole Moment Calculation                   ... off
Polarizability Calculation                      ... off
GBWName                                         ... orca.gbw
Electron density                                ... orca.scfp
The origin for moment calculation is the CENTER OF MASS  = ( 0.010304,  0.018037  0.021629)

-------------
DIPOLE MOMENT
-------------
                                X             Y             Z
Electronic contribution:      2.82746       0.02875       4.91326
Nuclear contribution   :     -4.40359      -0.23550      -6.94636
                        -----------------------------------------
Total Dipole Moment    :     -1.57613      -0.20674      -2.03309
                        -----------------------------------------
Magnitude (a.u.)       :      2.58078
Magnitude (Debye)      :      6.55981



--------------------
Rotational spectrum 
--------------------
 
Rotational constants in cm-1:     0.076929     0.022172     0.021263 
Rotational constants in MHz :  2306.268168   664.691354   637.457051 

 Dipole components along the rotational axes: 
x,y,z [a.u.] :    -0.826787    -0.533659     2.385801 
x,y,z [Debye]:    -2.101525    -1.356452     6.064223 

 

Timings for individual modules:

Sum of individual times         ...        8.332 sec (=   0.139 min)
GTO integral calculation        ...        0.483 sec (=   0.008 min)   5.8 %
SCF iterations                  ...        5.821 sec (=   0.097 min)  69.9 %
SCF Gradient evaluation         ...        2.027 sec (=   0.034 min)  24.3 %
                             ****ORCA TERMINATED NORMALLY****
TOTAL RUN TIME: 0 days 0 hours 0 minutes 8 seconds 760 msec
