
                                 *****************
                                 * O   R   C   A *
                                 *****************

                                            #,                                       
                                            ###                                      
                                            ####                                     
                                            #####                                    
                                            ######                                   
                                           ########,                                 
                                     ,,################,,,,,                         
                               ,,#################################,,                 
                          ,,##########################################,,             
                       ,#########################################, ''#####,          
                    ,#############################################,,   '####,        
                  ,##################################################,,,,####,       
                ,###########''''           ''''###############################       
              ,#####''   ,,,,##########,,,,          '''####'''          '####       
            ,##' ,,,,###########################,,,                        '##       
           ' ,,###''''                  '''############,,,                           
         ,,##''                                '''############,,,,        ,,,,,,###''
      ,#''                                            '''#######################'''  
     '                                                          ''''####''''         
             ,#######,   #######,   ,#######,      ##                                
            ,#'     '#,  ##    ##  ,#'     '#,    #''#        ######   ,####,        
            ##       ##  ##   ,#'  ##            #'  '#       #        #'  '#        
            ##       ##  #######   ##           ,######,      #####,   #    #        
            '#,     ,#'  ##    ##  '#,     ,#' ,#      #,         ##   #,  ,#        
             '#######'   ##     ##  '#######'  #'      '#     #####' # '####'        



                  #######################################################
                  #                        -***-                        #
                  #          Department of theory and spectroscopy      #
                  #    Directorship and core code : Frank Neese         #
                  #        Max Planck Institute fuer Kohlenforschung    #
                  #                Kaiser Wilhelm Platz 1               #
                  #                 D-45470 Muelheim/Ruhr               #
                  #                      Germany                        #
                  #                                                     #
                  #                  All rights reserved                #
                  #                        -***-                        #
                  #######################################################


                         Program Version 5.0.4 -  RELEASE  -


 With contributions from (in alphabetic order):
   Daniel Aravena         : Magnetic Suceptibility
   Michael Atanasov       : Ab Initio Ligand Field Theory (pilot matlab implementation)
   Alexander A. Auer      : GIAO ZORA, VPT2 properties, NMR spectrum
   Ute Becker             : Parallelization
   Giovanni Bistoni       : ED, misc. LED, open-shell LED, HFLD
   Martin Brehm           : Molecular dynamics
   Dmytro Bykov           : SCF Hessian
   Vijay G. Chilkuri      : MRCI spin determinant printing, contributions to CSF-ICE
   Dipayan Datta          : RHF DLPNO-CCSD density
   Achintya Kumar Dutta   : EOM-CC, STEOM-CC
   Dmitry Ganyushin       : Spin-Orbit,Spin-Spin,Magnetic field MRCI
   Miquel Garcia          : C-PCM and meta-GGA Hessian, CC/C-PCM, Gaussian charge scheme
   Yang Guo               : DLPNO-NEVPT2, F12-NEVPT2, CIM, IAO-localization
   Andreas Hansen         : Spin unrestricted coupled pair/coupled cluster methods
   Benjamin Helmich-Paris : MC-RPA, TRAH-SCF, COSX integrals
   Lee Huntington         : MR-EOM, pCC
   Robert Izsak           : Overlap fitted RIJCOSX, COSX-SCS-MP3, EOM
   Marcus Kettner         : VPT2
   Christian Kollmar      : KDIIS, OOCD, Brueckner-CCSD(T), CCSD density, CASPT2, CASPT2-K
   Simone Kossmann        : Meta GGA functionals, TD-DFT gradient, OOMP2, MP2 Hessian
   Martin Krupicka        : Initial AUTO-CI
   Lucas Lang             : DCDCAS
   Marvin Lechner         : AUTO-CI (C++ implementation), FIC-MRCC
   Dagmar Lenk            : GEPOL surface, SMD
   Dimitrios Liakos       : Extrapolation schemes; Compound Job, initial MDCI parallelization
   Dimitrios Manganas     : Further ROCIS development; embedding schemes
   Dimitrios Pantazis     : SARC Basis sets
   Anastasios Papadopoulos: AUTO-CI, single reference methods and gradients
   Taras Petrenko         : DFT Hessian,TD-DFT gradient, ASA, ECA, R-Raman, ABS, FL, XAS/XES, NRVS
   Peter Pinski           : DLPNO-MP2, DLPNO-MP2 Gradient
   Christoph Reimann      : Effective Core Potentials
   Marius Retegan         : Local ZFS, SOC
   Christoph Riplinger    : Optimizer, TS searches, QM/MM, DLPNO-CCSD(T), (RO)-DLPNO pert. Triples
   Tobias Risthaus        : Range-separated hybrids, TD-DFT gradient, RPA, STAB
   Michael Roemelt        : Original ROCIS implementation
   Masaaki Saitow         : Open-shell DLPNO-CCSD energy and density
   Barbara Sandhoefer     : DKH picture change effects
   Avijit Sen             : IP-ROCIS
   Kantharuban Sivalingam : CASSCF convergence, NEVPT2, FIC-MRCI
   Bernardo de Souza      : ESD, SOC TD-DFT
   Georgi Stoychev        : AutoAux, RI-MP2 NMR, DLPNO-MP2 response
   Willem Van den Heuvel  : Paramagnetic NMR
   Boris Wezisla          : Elementary symmetry handling
   Frank Wennmohs         : Technical directorship


 We gratefully acknowledge several colleagues who have allowed us to
 interface, adapt or use parts of their codes:
   Stefan Grimme, W. Hujo, H. Kruse, P. Pracht,  : VdW corrections, initial TS optimization,
                  C. Bannwarth, S. Ehlert          DFT functionals, gCP, sTDA/sTD-DF
   Ed Valeev, F. Pavosevic, A. Kumar             : LibInt (2-el integral package), F12 methods
   Garnet Chan, S. Sharma, J. Yang, R. Olivares  : DMRG
   Ulf Ekstrom                                   : XCFun DFT Library
   Mihaly Kallay                                 : mrcc  (arbitrary order and MRCC methods)
   Jiri Pittner, Ondrej Demel                    : Mk-CCSD
   Frank Weinhold                                : gennbo (NPA and NBO analysis)
   Christopher J. Cramer and Donald G. Truhlar   : smd solvation model
   Lars Goerigk                                  : TD-DFT with DH, B97 family of functionals
   V. Asgeirsson, H. Jonsson                     : NEB implementation
   FAccTs GmbH                                   : IRC, NEB, NEB-TS, DLPNO-Multilevel, CI-OPT
                                                   MM, QMMM, 2- and 3-layer-ONIOM, Crystal-QMMM,
                                                   LR-CPCM, SF, NACMEs, symmetry and pop. for TD-DFT,
                                                   nearIR, NL-DFT gradient (VV10), updates on ESD,
                                                   ML-optimized integration grids
   S Lehtola, MJT Oliveira, MAL Marques          : LibXC Library
   Liviu Ungur et al                             : ANISO software


 Your calculation uses the libint2 library for the computation of 2-el integrals
 For citations please refer to: http://libint.valeyev.net

 Your ORCA version has been built with support for libXC version: 5.1.0
 For citations please refer to: https://tddft.org/programs/libxc/

 This ORCA versions uses:
   CBLAS   interface :  Fast vector & matrix operations
   LAPACKE interface :  Fast linear algebra routines
   SCALAPACK package :  Parallel linear algebra routines
   Shared memory     :  Shared parallel matrices
   BLAS/LAPACK       :  OpenBLAS 0.3.15  USE64BITINT DYNAMIC_ARCH NO_AFFINITY Prescott SINGLE_THREADED
        Core in use  :  Prescott
   Copyright (c) 2011-2014, The OpenBLAS Project


================================================================================

----- Orbital basis set information -----
Your calculation utilizes the basis: def2-TZVP
   F. Weigend and R. Ahlrichs, Phys. Chem. Chem. Phys. 7, 3297 (2005).

----- AuxJ basis set information -----
Your calculation utilizes the auxiliary basis: def2/J
   F. Weigend, Phys. Chem. Chem. Phys. 8, 1057 (2006).

================================================================================
                                        WARNINGS
                       Please study these warnings very carefully!
================================================================================

WARNING: Old DensityContainer found on disk!
         Will remove this file - 
         If you want to keep old densities, please start your calculation with a different basename. 


INFO   : the flag for use of the SHARK integral package has been found!

================================================================================
                                       INPUT FILE
================================================================================
NAME = orca.inp
|  1> ! PBE def2-TZVP TightSCF EnGrad 
|  2> %pal nprocs 8 end 
|  3> *xyz 0 1 
|  4> C   3.455805177497255 1.6777870382754636 0.49309626878713203
|  5> N   2.548736514506145 0.5271506446932677 0.32750713275410986
|  6> C   1.228101119205429 0.7522007151991084 0.08356331000283458
|  7> O   0.7785404738753614 1.824052491630863 -0.25637563341651215
|  8> C   0.27899614971924264 -0.42773884008633106 0.29042319363285996
|  9> C   0.6319295277484901 -1.59373419424376 -0.6081112235501595
| 10> N   -1.0110371606790587 0.025778791353790954 -0.10661693881142713
| 11> C   -2.166355741830729 -0.7001237243351054 0.016075360662351764
| 12> C   -3.3503091427049556 -0.027295204454558724 -0.5718682506167841
| 13> O   -2.139745650130018 -1.8590447385682256 0.5036373540040845
| 14> H   3.404871633082847 2.068357059953995 1.4976803470464954
| 15> H   4.4484155619640715 1.4411991079072686 0.26865950491213525
| 16> H   2.9996649982150534 2.43596035613502 -0.20439525164640346
| 17> H   2.7850259614650166 -0.3976631790660495 0.7639214624389514
| 18> H   0.09169462614258941 -0.6638922210660649 1.3479179266432166
| 19> H   0.5765953577760558 -1.1392788579906616 -1.5990552501206308
| 20> H   1.5660979642944177 -2.043656083984922 -0.42289002239156714
| 21> H   -0.1832618714907893 -2.364153216764454 -0.5717808317302434
| 22> H   -1.059543319432368 0.9455177828016927 -0.41933411370782864
| 23> H   -3.642093462282373 -0.4251012224666065 -1.5447464135091176
| 24> H   -3.1910496123601924 1.0450759278166084 -0.8011530339810256
| 25> H   -4.331400561885677 0.016389444391232577 -0.014869118032739513
| 26> *
| 27> 
| 28>                          ****END OF INPUT****
================================================================================

                     *******************************
                     * Energy+Gradient Calculation *
                     *******************************

---------------------------------
CARTESIAN COORDINATES (ANGSTROEM)
---------------------------------
  C      3.455805    1.677787    0.493096
  N      2.548737    0.527151    0.327507
  C      1.228101    0.752201    0.083563
  O      0.778540    1.824052   -0.256376
  C      0.278996   -0.427739    0.290423
  C      0.631930   -1.593734   -0.608111
  N     -1.011037    0.025779   -0.106617
  C     -2.166356   -0.700124    0.016075
  C     -3.350309   -0.027295   -0.571868
  O     -2.139746   -1.859045    0.503637
  H      3.404872    2.068357    1.497680
  H      4.448416    1.441199    0.268660
  H      2.999665    2.435960   -0.204395
  H      2.785026   -0.397663    0.763921
  H      0.091695   -0.663892    1.347918
  H      0.576595   -1.139279   -1.599055
  H      1.566098   -2.043656   -0.422890
  H     -0.183262   -2.364153   -0.571781
  H     -1.059543    0.945518   -0.419334
  H     -3.642093   -0.425101   -1.544746
  H     -3.191050    1.045076   -0.801153
  H     -4.331401    0.016389   -0.014869

----------------------------
CARTESIAN COORDINATES (A.U.)
----------------------------
  NO LB      ZA    FRAG     MASS         X           Y           Z
   0 C     6.0000    0    12.011    6.530525    3.170558    0.931817
   1 N     7.0000    0    14.007    4.816414    0.996170    0.618899
   2 C     6.0000    0    12.011    2.320775    1.421453    0.157912
   3 O     8.0000    0    15.999    1.471228    3.446960   -0.484480
   4 C     6.0000    0    12.011    0.527226   -0.808309    0.548820
   5 C     6.0000    0    12.011    1.194174   -3.011721   -1.149164
   6 N     7.0000    0    14.007   -1.910583    0.048715   -0.201477
   7 C     6.0000    0    12.011   -4.093819   -1.323042    0.030378
   8 C     6.0000    0    12.011   -6.331167   -0.051580   -1.080674
   9 O     8.0000    0    15.999   -4.043533   -3.513085    0.951737
  10 H     1.0000    0     1.008    6.434275    3.908628    2.830206
  11 H     1.0000    0     1.008    8.406287    2.723472    0.507693
  12 H     1.0000    0     1.008    5.668545    4.603298   -0.386251
  13 H     1.0000    0     1.008    5.262936   -0.751475    1.443602
  14 H     1.0000    0     1.008    0.173278   -1.254574    2.547196
  15 H     1.0000    0     1.008    1.089607   -2.152925   -3.021776
  16 H     1.0000    0     1.008    2.959496   -3.861950   -0.799146
  17 H     1.0000    0     1.008   -0.346315   -4.467602   -1.080509
  18 H     1.0000    0     1.008   -2.002247    1.786770   -0.792427
  19 H     1.0000    0     1.008   -6.882559   -0.803325   -2.919148
  20 H     1.0000    0     1.008   -6.030210    1.974907   -1.513960
  21 H     1.0000    0     1.008   -8.185161    0.030972   -0.028099

--------------------------------
INTERNAL COORDINATES (ANGSTROEM)
--------------------------------
 C      0   0   0     0.000000000000     0.00000000     0.00000000
 N      1   0   0     1.474502435260     0.00000000     0.00000000
 C      2   1   0     1.361702599768   119.19377316     0.00000000
 O      3   2   1     1.211003505248   123.82114885    14.45662290
 C      3   2   1     1.528348327014   116.77124167   195.90115952
 C      5   3   2     1.513760626422   111.68756848   299.89890183
 N      5   3   2     1.423904860142   106.19932019   183.68604853
 C      7   5   3     1.369944848010   124.77144702   185.00512822
 C      8   7   5     1.483280675614   113.40890177   184.42164531
 O      8   7   5     1.257586065271   120.34348096   359.69714979
 H      1   2   3     1.079040471008   110.97575977    82.00147953
 H      1   2   3     1.044806721421   112.55734245   204.56497558
 H      1   2   3     1.126669900258   101.92016015   326.89719787
 H      2   1   3     1.049557420304   120.16004711   205.09954650
 H      5   3   2     1.099611472488   113.68732676    74.13266693
 H      6   5   3     1.091586728946   101.90861893   302.54066363
 H      6   5   3     1.053284039595   115.55826019    64.82309972
 H      6   5   3     1.122230985593   109.88994174   190.27843046
 H      7   5   3     0.972658568719   115.84918777     0.00000000
 H      9   8   7     1.090816041755   113.67893574   102.32461068
 H      9   8   7     1.108113241152   113.97110714   346.08432452
 H      9   8   7     1.129024691951   121.03835730   225.44461566

---------------------------
INTERNAL COORDINATES (A.U.)
---------------------------
 C      0   0   0     0.000000000000     0.00000000     0.00000000
 N      1   0   0     2.786405786442     0.00000000     0.00000000
 C      2   1   0     2.573244989410   119.19377316     0.00000000
 O      3   2   1     2.288464972137   123.82114885    14.45662290
 C      3   2   1     2.888159775293   116.77124167   195.90115952
 C      5   3   2     2.860593016251   111.68756848   299.89890183
 N      5   3   2     2.690790226428   106.19932019   183.68604853
 C      7   5   3     2.588820581314   124.77144702   185.00512822
 C      8   7   5     2.802994256648   113.40890177   184.42164531
 O      8   7   5     2.376493253197   120.34348096   359.69714979
 H      1   2   3     2.039090977622   110.97575977    82.00147953
 H      1   2   3     1.974398566365   112.55734245   204.56497558
 H      1   2   3     2.129097554819   101.92016015   326.89719787
 H      2   1   3     1.983376086199   120.16004711   205.09954650
 H      5   3   2     2.077964536720   113.68732676    74.13266693
 H      6   5   3     2.062799969131   101.90861893   302.54066363
 H      6   5   3     1.990418376065   115.55826019    64.82309972
 H      6   5   3     2.120709221771   109.88994174   190.27843046
 H      7   5   3     1.838058316690   115.84918777     0.00000000
 H      9   8   7     2.061343581405   113.67893574   102.32461068
 H      9   8   7     2.094030551149   113.97110714   346.08432452
 H      9   8   7     2.133547466221   121.03835730   225.44461566

---------------------
BASIS SET INFORMATION
---------------------
There are 4 groups of distinct atoms

 Group   1 Type C   : 11s6p2d1f contracted to 5s3p2d1f pattern {62111/411/11/1}
 Group   2 Type N   : 11s6p2d1f contracted to 5s3p2d1f pattern {62111/411/11/1}
 Group   3 Type O   : 11s6p2d1f contracted to 5s3p2d1f pattern {62111/411/11/1}
 Group   4 Type H   : 5s1p contracted to 3s1p pattern {311/1}

Atom   0C    basis set group =>   1
Atom   1N    basis set group =>   2
Atom   2C    basis set group =>   1
Atom   3O    basis set group =>   3
Atom   4C    basis set group =>   1
Atom   5C    basis set group =>   1
Atom   6N    basis set group =>   2
Atom   7C    basis set group =>   1
Atom   8C    basis set group =>   1
Atom   9O    basis set group =>   3
Atom  10H    basis set group =>   4
Atom  11H    basis set group =>   4
Atom  12H    basis set group =>   4
Atom  13H    basis set group =>   4
Atom  14H    basis set group =>   4
Atom  15H    basis set group =>   4
Atom  16H    basis set group =>   4
Atom  17H    basis set group =>   4
Atom  18H    basis set group =>   4
Atom  19H    basis set group =>   4
Atom  20H    basis set group =>   4
Atom  21H    basis set group =>   4
---------------------------------
AUXILIARY/J BASIS SET INFORMATION
---------------------------------
There are 4 groups of distinct atoms

 Group   1 Type C   : 12s5p4d2f1g contracted to 6s4p3d1f1g pattern {711111/2111/211/2/1}
 Group   2 Type N   : 12s5p4d2f1g contracted to 6s4p3d1f1g pattern {711111/2111/211/2/1}
 Group   3 Type O   : 12s5p4d2f1g contracted to 6s4p3d1f1g pattern {711111/2111/211/2/1}
 Group   4 Type H   : 5s2p1d contracted to 3s1p1d pattern {311/2/1}

Atom   0C    basis set group =>   1
Atom   1N    basis set group =>   2
Atom   2C    basis set group =>   1
Atom   3O    basis set group =>   3
Atom   4C    basis set group =>   1
Atom   5C    basis set group =>   1
Atom   6N    basis set group =>   2
Atom   7C    basis set group =>   1
Atom   8C    basis set group =>   1
Atom   9O    basis set group =>   3
Atom  10H    basis set group =>   4
Atom  11H    basis set group =>   4
Atom  12H    basis set group =>   4
Atom  13H    basis set group =>   4
Atom  14H    basis set group =>   4
Atom  15H    basis set group =>   4
Atom  16H    basis set group =>   4
Atom  17H    basis set group =>   4
Atom  18H    basis set group =>   4
Atom  19H    basis set group =>   4
Atom  20H    basis set group =>   4
Atom  21H    basis set group =>   4

Checking for AutoStart:
The File: orca.gbw exists
Trying to determine its content:
     ... Fine, the file contains calculation information
     ... Fine, the calculation information was read
     ... Fine, the file contains a basis set
     ... Fine, the basis set was read
     ... Fine, the file contains a geometry
     ... Fine, the geometry was read
     ... Fine, the file contains a set of orbitals
     ... Fine, the orbitals can be read
     => possible old guess file was deleted
     => GBW file was renamed to GES file
     => GES file is set as startup file
     => Guess is set to MORead
     ... now leaving AutoStart



           ************************************************************
           *        Program running with 8 parallel MPI-processes     *
           *              working on a common directory               *
           ************************************************************
------------------------------------------------------------------------------
                           ORCA GTO INTEGRAL CALCULATION
                           -- RI-GTO INTEGRALS CHOSEN --
------------------------------------------------------------------------------
------------------------------------------------------------------------------
                   ___                                                        
                  /   \      - P O W E R E D   B Y -                         
                 /     \                                                     
                 |  |  |   _    _      __       _____    __    __             
                 |  |  |  | |  | |    /  \     |  _  \  |  |  /  |          
                  \  \/   | |  | |   /    \    | | | |  |  | /  /          
                 / \  \   | |__| |  /  /\  \   | |_| |  |  |/  /          
                |  |  |   |  __  | /  /__\  \  |    /   |      \           
                |  |  |   | |  | | |   __   |  |    \   |  |\   \          
                \     /   | |  | | |  |  |  |  | |\  \  |  | \   \       
                 \___/    |_|  |_| |__|  |__|  |_| \__\ |__|  \__/        
                                                                              
                      - O R C A' S   B I G   F R I E N D -                    
                                      &                                       
                       - I N T E G R A L  F E E D E R -                       
                                                                              
 v1 FN, 2020, v2 2021                                                         
------------------------------------------------------------------------------


Reading SHARK input file orca.SHARKINP.tmp ... ok
----------------------
SHARK INTEGRAL PACKAGE
----------------------

Number of atoms                             ...     22
Number of basis functions                   ...    382
Number of shells                            ...    158
Maximum angular momentum                    ...      3
Integral batch strategy                     ... SHARK/LIBINT Hybrid
RI-J (if used) integral strategy            ... SPLIT-RIJ (Revised 2003 algorithm where possible)
Printlevel                                  ...      1
Contraction scheme used                     ... SEGMENTED contraction
Coulomb Range Separation                    ... NOT USED
Exchange Range Separation                   ... NOT USED
Finite Nucleus Model                        ... NOT USED
Auxiliary Coulomb fitting basis             ... AVAILABLE
   # of basis functions in Aux-J            ...    622
   # of shells in Aux-J                     ...    210
   Maximum angular momentum in Aux-J        ...      4
Auxiliary J/K fitting basis                 ... NOT available
Auxiliary Correlation fitting basis         ... NOT available
Auxiliary 'external' fitting basis          ... NOT available
Integral threshold                          ...     2.500000e-11
Primitive cut-off                           ...     2.500000e-12
Primitive pair pre-selection threshold      ...     2.500000e-12

Calculating pre-screening integrals         ... done (  0.0 sec) Dimension = 158
Organizing shell pair data                  ... done (  0.0 sec)
Shell pair information
Total number of shell pairs                 ...     12561
Shell pairs after pre-screening             ...     10588
Total number of primitive shell pairs       ...     37384
Primitive shell pairs kept                  ...     22940
          la=0 lb=0:   3066 shell pairs
          la=1 lb=0:   3081 shell pairs
          la=1 lb=1:    801 shell pairs
          la=2 lb=0:   1443 shell pairs
          la=2 lb=1:    731 shell pairs
          la=2 lb=2:    182 shell pairs
          la=3 lb=0:    706 shell pairs
          la=3 lb=1:    363 shell pairs
          la=3 lb=2:    169 shell pairs
          la=3 lb=3:     46 shell pairs

Calculating one electron integrals          ... done (  0.0 sec)
Calculating RI/J V-Matrix + Cholesky decomp.... done (  0.0 sec)
Calculating Nuclear repulsion               ... done (  0.0 sec) ENN=    554.646025597412 Eh

SHARK setup successfully completed in   0.1 seconds

Maximum memory used throughout the entire GTOINT-calculation: 23.5 MB


           ************************************************************
           *        Program running with 8 parallel MPI-processes     *
           *              working on a common directory               *
           ************************************************************
-------------------------------------------------------------------------------
                                 ORCA SCF
-------------------------------------------------------------------------------

------------
SCF SETTINGS
------------
Hamiltonian:
 Density Functional     Method          .... DFT(GTOs)
 Exchange Functional    Exchange        .... PBE
   PBE kappa parameter   XKappa         ....  0.804000
   PBE mue parameter    XMuePBE         ....  0.219520
 Correlation Functional Correlation     .... PBE
   PBE beta parameter  CBetaPBE         ....  0.066725
 LDA part of GGA corr.  LDAOpt          .... PW91-LDA
 Gradients option       PostSCFGGA      .... off
   Density functional embedding theory  .... OFF
   NL short-range parameter             ....  6.400000
 RI-approximation to the Coulomb term is turned on
   Number of AuxJ basis functions       .... 622


General Settings:
 Integral files         IntName         .... orca
 Hartree-Fock type      HFTyp           .... RHF
 Total Charge           Charge          ....    0
 Multiplicity           Mult            ....    1
 Number of Electrons    NEL             ....   78
 Basis Dimension        Dim             ....  382
 Nuclear Repulsion      ENuc            ....    554.6460255974 Eh

Convergence Acceleration:
 DIIS                   CNVDIIS         .... on
   Start iteration      DIISMaxIt       ....    12
   Startup error        DIISStart       ....  0.200000
   # of expansion vecs  DIISMaxEq       ....     5
   Bias factor          DIISBfac        ....   1.050
   Max. coefficient     DIISMaxC        ....  10.000
 Trust-Rad. Augm. Hess. CNVTRAH         .... auto
   Auto Start mean grad. ratio tolernc. ....  1.125000
   Auto Start start iteration           ....     1
   Auto Start num. interpolation iter.  ....    10
   Max. Number of Micro iterations      ....    16
   Max. Number of Macro iterations      .... Maxiter - #DIIS iter
   Number of Davidson start vectors     ....     2
   Converg. threshold I  (grad. norm)   ....   1.000e-05
   Converg. threshold II (energy diff.) ....   1.000e-08
   Grad. Scal. Fac. for Micro threshold ....   0.100
   Minimum threshold for Micro iter.    ....   0.010
   NR start threshold (gradient norm)   ....   0.001
   Initial trust radius                 ....   0.400
   Minimum AH scaling param. (alpha)    ....   1.000
   Maximum AH scaling param. (alpha)    .... 1000.000
   Orbital update algorithm             .... Taylor
   White noise on init. David. guess    .... on
   Maximum white noise                  ....   0.010
   Quad. conv. algorithm                .... NR
 SOSCF                  CNVSOSCF        .... on
   Start iteration      SOSCFMaxIt      ....   150
   Startup grad/error   SOSCFStart      ....  0.003300
 Level Shifting         CNVShift        .... on
   Level shift para.    LevelShift      ....    0.2500
   Turn off err/grad.   ShiftErr        ....    0.0010
 Zerner damping         CNVZerner       .... off
 Static damping         CNVDamp         .... on
   Fraction old density DampFac         ....    0.7000
   Max. Damping (<1)    DampMax         ....    0.9800
   Min. Damping (>=0)   DampMin         ....    0.0000
   Turn off err/grad.   DampErr         ....    0.1000
 Fernandez-Rico         CNVRico         .... off

SCF Procedure:
 Maximum # iterations   MaxIter         ....   125
 SCF integral mode      SCFMode         .... Direct
   Integral package                     .... SHARK and LIBINT hybrid scheme
 Reset frequency        DirectResetFreq ....    20
 Integral Threshold     Thresh          ....  2.500e-11 Eh
 Primitive CutOff       TCut            ....  2.500e-12 Eh

Convergence Tolerance:
 Convergence Check Mode ConvCheckMode   .... Total+1el-Energy
 Convergence forced     ConvForced      .... 0
 Energy Change          TolE            ....  1.000e-08 Eh
 1-El. energy change                    ....  1.000e-05 Eh
 Orbital Gradient       TolG            ....  1.000e-05
 Orbital Rotation angle TolX            ....  1.000e-05
 DIIS Error             TolErr          ....  5.000e-07


Diagonalization of the overlap matrix:
Smallest eigenvalue                        ... 8.583e-05
Time for diagonalization                   ...    0.014 sec
Threshold for overlap eigenvalues          ... 1.000e-08
Number of eigenvalues below threshold      ... 0
Time for construction of square roots      ...    0.010 sec
Total time needed                          ...    0.025 sec

---------------------
INITIAL GUESS: MOREAD
---------------------
Guess MOs are being read from file: orca.ges
Input geometry compatible with but different from current geometry
Input basis set matches current basis set (good)
MOs were renormalized
MOs were reorthogonalized (Cholesky)
                      ------------------
                      INITIAL GUESS DONE (   0.0 sec)
                      ------------------
-------------------
DFT GRID GENERATION
-------------------

General Integration Accuracy     IntAcc      ... 4.388
Radial Grid Type                 RadialGrid  ... OptM3 with GC (2021)
Angular Grid (max. ang.)         AngularGrid ... 4 (Lebedev-302)
Angular grid pruning method      GridPruning ... 4 (adaptive)
Weight generation scheme         WeightScheme... Becke
Basis function cutoff            BFCut       ... 1.0000e-11
Integration weight cutoff        WCut        ... 1.0000e-14
Angular grids for H and He will be reduced by one unit
Partially contracted basis set               ... off
Rotationally invariant grid construction     ... off

Total number of grid points                  ...    98757
Total number of batches                      ...     1554
Average number of points per batch           ...       63
Average number of grid points per atom       ...     4489
Time for grid setup =    0.235 sec

--------------
SCF ITERATIONS
--------------
ITER       Energy         Delta-E        Max-DP      RMS-DP      [F,P]     Damp
               ***  Starting incremental Fock matrix formation  ***
  0   -491.9376486524   0.000000000000 0.10853254  0.00179111  0.5256973 0.7000
  1   -492.9451027312  -1.007454078725 0.09560270  0.00156634  0.4251100 0.7000
  2   -493.6860882354  -0.740985504268 0.07216459  0.00119371  0.3138599 0.7000
  3   -494.2091658641  -0.523077628642 0.05193620  0.00088241  0.2228611 0.7000
                               ***Turning on DIIS***
  4   -494.5752572157  -0.366091351664 0.03674579  0.00063689  0.1563573 0.7000
  5   -494.8311236516  -0.255866435847 0.02582128  0.00045251  0.1094892 0.7000
  6   -495.0100680785  -0.178944426925 0.06060641  0.00106683  0.0767474 0.0000
  7   -495.4273331129  -0.417265034375 0.00518072  0.00006028  0.0062186 0.0000
  8   -495.4272446533   0.000088459612 0.00218187  0.00002176  0.0100956 0.0000
                      *** Initiating the SOSCF procedure ***
                           *** Shutting down DIIS ***
                      *** Re-Reading the Fockian *** 
                      *** Removing any level shift *** 
ITER      Energy       Delta-E        Grad      Rot      Max-DP    RMS-DP
  9   -495.42738210  -0.0001374510  0.000395  0.000395  0.000720  0.000012
               *** Restarting incremental Fock matrix formation ***
 10   -495.42739595  -0.0000138433  0.000272  0.001404  0.001072  0.000015
 11   -495.42739049   0.0000054562  0.000760  0.000913  0.000691  0.000010
 12   -495.42739672  -0.0000062246  0.000024  0.000107  0.000205  0.000002
 13   -495.42739664   0.0000000780  0.000054  0.000074  0.000144  0.000001
 14   -495.42739674  -0.0000001039  0.000011  0.000038  0.000030  0.000001
 15   -495.42739674  -0.0000000003  0.000027  0.000032  0.000024  0.000000
                  ***Gradient check signals convergence***
              ***Rediagonalizing the Fockian in SOSCF/NRSCF***

               *****************************************************
               *                     SUCCESS                       *
               *           SCF CONVERGED AFTER  16 CYCLES          *
               *****************************************************


----------------
TOTAL SCF ENERGY
----------------

Total Energy       :         -495.42739674 Eh          -13481.26484 eV

Components:
Nuclear Repulsion  :          554.64602560 Eh           15092.68565 eV
Electronic Energy  :        -1050.07342234 Eh          -28573.95049 eV
One Electron Energy:        -1773.96928553 Eh          -48272.15837 eV
Two Electron Energy:          723.89586318 Eh           19698.20787 eV

Virial components:
Potential Energy   :         -988.95147932 Eh          -26910.73787 eV
Kinetic Energy     :          493.52408258 Eh           13429.47303 eV
Virial Ratio       :            2.00385658


DFT components:
N(Alpha)           :       38.999968468188 electrons
N(Beta)            :       38.999968468188 electrons
N(Total)           :       77.999936936376 electrons
E(X)               :      -64.947883291781 Eh       
E(C)               :       -2.600836591748 Eh       
E(XC)              :      -67.548719883529 Eh       
DFET-embed. en.    :        0.000000000000 Eh       

---------------
SCF CONVERGENCE
---------------

  Last Energy change         ...   -2.5900e-09  Tolerance :   1.0000e-08
  Last MAX-Density change    ...    4.7496e-05  Tolerance :   1.0000e-07
  Last RMS-Density change    ...    2.8697e-07  Tolerance :   5.0000e-09
  Last Orbital Gradient      ...    2.1709e-06  Tolerance :   1.0000e-05
  Last Orbital Rotation      ...    5.8621e-06  Tolerance :   1.0000e-05

             **** THE GBW FILE WAS UPDATED (orca.gbw) ****
             **** DENSITY orca.scfp WAS UPDATED ****
             **** ENERGY FILE WAS UPDATED (orca.en.tmp) ****
             **** THE GBW FILE WAS UPDATED (orca.gbw) ****
             **** DENSITY orca.scfp WAS UPDATED ****
----------------
ORBITAL ENERGIES
----------------

  NO   OCC          E(Eh)            E(eV) 
   0   2.0000     -18.733389      -509.7614 
   1   2.0000     -18.703236      -508.9409 
   2   2.0000     -14.031275      -381.8104 
   3   2.0000     -13.997007      -380.8779 
   4   2.0000      -9.986474      -271.7458 
   5   2.0000      -9.972741      -271.3721 
   6   2.0000      -9.932603      -270.2799 
   7   2.0000      -9.922288      -269.9992 
   8   2.0000      -9.887313      -269.0475 
   9   2.0000      -9.875669      -268.7306 
  10   2.0000      -0.976801       -26.5801 
  11   2.0000      -0.927570       -25.2405 
  12   2.0000      -0.855438       -23.2777 
  13   2.0000      -0.846140       -23.0246 
  14   2.0000      -0.718793       -19.5594 
  15   2.0000      -0.666029       -18.1236 
  16   2.0000      -0.647302       -17.6140 
  17   2.0000      -0.592824       -16.1316 
  18   2.0000      -0.539958       -14.6930 
  19   2.0000      -0.524634       -14.2760 
  20   2.0000      -0.498329       -13.5602 
  21   2.0000      -0.448122       -12.1940 
  22   2.0000      -0.437624       -11.9083 
  23   2.0000      -0.417039       -11.3482 
  24   2.0000      -0.413538       -11.2529 
  25   2.0000      -0.395981       -10.7752 
  26   2.0000      -0.387233       -10.5371 
  27   2.0000      -0.374431       -10.1888 
  28   2.0000      -0.364103        -9.9077 
  29   2.0000      -0.358697        -9.7606 
  30   2.0000      -0.341997        -9.3062 
  31   2.0000      -0.335826        -9.1383 
  32   2.0000      -0.332291        -9.0421 
  33   2.0000      -0.328204        -8.9309 
  34   2.0000      -0.296484        -8.0677 
  35   2.0000      -0.245687        -6.6855 
  36   2.0000      -0.229699        -6.2504 
  37   2.0000      -0.214753        -5.8437 
  38   2.0000      -0.199592        -5.4312 
  39   0.0000      -0.032391        -0.8814 
  40   0.0000      -0.020985        -0.5710 
  41   0.0000      -0.004595        -0.1250 
  42   0.0000       0.024431         0.6648 
  43   0.0000       0.034297         0.9333 
  44   0.0000       0.055201         1.5021 
  45   0.0000       0.059976         1.6320 
  46   0.0000       0.064744         1.7618 
  47   0.0000       0.077146         2.0992 
  48   0.0000       0.086510         2.3541 
  49   0.0000       0.094738         2.5779 
  50   0.0000       0.099906         2.7186 
  51   0.0000       0.100317         2.7298 
  52   0.0000       0.107716         2.9311 
  53   0.0000       0.114875         3.1259 
  54   0.0000       0.131952         3.5906 
  55   0.0000       0.144955         3.9444 
  56   0.0000       0.155423         4.2293 
  57   0.0000       0.157625         4.2892 
  58   0.0000       0.170741         4.6461 
  59   0.0000       0.176338         4.7984 
  60   0.0000       0.191005         5.1975 
  61   0.0000       0.194599         5.2953 
  62   0.0000       0.197903         5.3852 
  63   0.0000       0.211663         5.7597 
  64   0.0000       0.223676         6.0865 
  65   0.0000       0.234963         6.3937 
  66   0.0000       0.243390         6.6230 
  67   0.0000       0.251890         6.8543 
  68   0.0000       0.266203         7.2438 
  69   0.0000       0.282694         7.6925 
  70   0.0000       0.293813         7.9950 
  71   0.0000       0.304779         8.2935 
  72   0.0000       0.316783         8.6201 
  73   0.0000       0.326519         8.8850 
  74   0.0000       0.336247         9.1497 
  75   0.0000       0.344758         9.3813 
  76   0.0000       0.354216         9.6387 
  77   0.0000       0.359673         9.7872 
  78   0.0000       0.366176         9.9642 
  79   0.0000       0.375901        10.2288 
  80   0.0000       0.383148        10.4260 
  81   0.0000       0.389425        10.5968 
  82   0.0000       0.392427        10.6785 
  83   0.0000       0.403001        10.9662 
  84   0.0000       0.406390        11.0584 
  85   0.0000       0.412823        11.2335 
  86   0.0000       0.413923        11.2634 
  87   0.0000       0.420520        11.4429 
  88   0.0000       0.426405        11.6031 
  89   0.0000       0.434578        11.8255 
  90   0.0000       0.441483        12.0134 
  91   0.0000       0.455042        12.3823 
  92   0.0000       0.459127        12.4935 
  93   0.0000       0.474134        12.9018 
  94   0.0000       0.481757        13.1093 
  95   0.0000       0.493178        13.4201 
  96   0.0000       0.499954        13.6045 
  97   0.0000       0.513965        13.9857 
  98   0.0000       0.518028        14.0963 
  99   0.0000       0.541270        14.7287 
 100   0.0000       0.548235        14.9182 
 101   0.0000       0.555411        15.1135 
 102   0.0000       0.564656        15.3651 
 103   0.0000       0.581530        15.8242 
 104   0.0000       0.592623        16.1261 
 105   0.0000       0.606580        16.5059 
 106   0.0000       0.631926        17.1956 
 107   0.0000       0.648968        17.6593 
 108   0.0000       0.671508        18.2727 
 109   0.0000       0.688639        18.7388 
 110   0.0000       0.691145        18.8070 
 111   0.0000       0.707966        19.2647 
 112   0.0000       0.735165        20.0049 
 113   0.0000       0.737105        20.0577 
 114   0.0000       0.751072        20.4377 
 115   0.0000       0.765220        20.8227 
 116   0.0000       0.776764        21.1368 
 117   0.0000       0.795140        21.6369 
 118   0.0000       0.816740        22.2246 
 119   0.0000       0.819690        22.3049 
 120   0.0000       0.837091        22.7784 
 121   0.0000       0.855855        23.2890 
 122   0.0000       0.870452        23.6862 
 123   0.0000       0.880799        23.9678 
 124   0.0000       0.898736        24.4559 
 125   0.0000       0.924249        25.1501 
 126   0.0000       0.937464        25.5097 
 127   0.0000       0.941981        25.6326 
 128   0.0000       0.966979        26.3128 
 129   0.0000       0.974589        26.5199 
 130   0.0000       0.986369        26.8405 
 131   0.0000       1.000997        27.2385 
 132   0.0000       1.024922        27.8895 
 133   0.0000       1.039713        28.2920 
 134   0.0000       1.069496        29.1025 
 135   0.0000       1.087502        29.5924 
 136   0.0000       1.105981        30.0953 
 137   0.0000       1.128499        30.7080 
 138   0.0000       1.138669        30.9847 
 139   0.0000       1.154820        31.4243 
 140   0.0000       1.217165        33.1208 
 141   0.0000       1.230289        33.4779 
 142   0.0000       1.258855        34.2552 
 143   0.0000       1.264468        34.4079 
 144   0.0000       1.292046        35.1583 
 145   0.0000       1.300737        35.3949 
 146   0.0000       1.325878        36.0790 
 147   0.0000       1.345057        36.6009 
 148   0.0000       1.369362        37.2622 
 149   0.0000       1.379556        37.5396 
 150   0.0000       1.395173        37.9646 
 151   0.0000       1.402850        38.1735 
 152   0.0000       1.420906        38.6648 
 153   0.0000       1.429768        38.9060 
 154   0.0000       1.445414        39.3317 
 155   0.0000       1.454041        39.5665 
 156   0.0000       1.461717        39.7753 
 157   0.0000       1.476143        40.1679 
 158   0.0000       1.479936        40.2711 
 159   0.0000       1.488571        40.5061 
 160   0.0000       1.489960        40.5439 
 161   0.0000       1.497746        40.7557 
 162   0.0000       1.509573        41.0776 
 163   0.0000       1.530210        41.6391 
 164   0.0000       1.531133        41.6643 
 165   0.0000       1.554805        42.3084 
 166   0.0000       1.557899        42.3926 
 167   0.0000       1.580056        42.9955 
 168   0.0000       1.585391        43.1407 
 169   0.0000       1.621385        44.1201 
 170   0.0000       1.641356        44.6636 
 171   0.0000       1.644830        44.7581 
 172   0.0000       1.658414        45.1278 
 173   0.0000       1.687874        45.9294 
 174   0.0000       1.699377        46.2424 
 175   0.0000       1.723470        46.8980 
 176   0.0000       1.736408        47.2501 
 177   0.0000       1.760295        47.9001 
 178   0.0000       1.774573        48.2886 
 179   0.0000       1.778686        48.4005 
 180   0.0000       1.803290        49.0700 
 181   0.0000       1.809316        49.2340 
 182   0.0000       1.839394        50.0525 
 183   0.0000       1.857825        50.5540 
 184   0.0000       1.875916        51.0463 
 185   0.0000       1.885317        51.3021 
 186   0.0000       1.910025        51.9744 
 187   0.0000       1.931702        52.5643 
 188   0.0000       1.940717        52.8096 
 189   0.0000       1.945037        52.9272 
 190   0.0000       1.975167        53.7470 
 191   0.0000       2.001021        54.4505 
 192   0.0000       2.013354        54.7862 
 193   0.0000       2.042667        55.5838 
 194   0.0000       2.061223        56.0887 
 195   0.0000       2.075866        56.4872 
 196   0.0000       2.086224        56.7690 
 197   0.0000       2.116359        57.5891 
 198   0.0000       2.136266        58.1308 
 199   0.0000       2.147235        58.4292 
 200   0.0000       2.172159        59.1075 
 201   0.0000       2.174949        59.1834 
 202   0.0000       2.187060        59.5129 
 203   0.0000       2.200219        59.8710 
 204   0.0000       2.205632        60.0183 
 205   0.0000       2.233066        60.7648 
 206   0.0000       2.238526        60.9134 
 207   0.0000       2.246010        61.1170 
 208   0.0000       2.264499        61.6202 
 209   0.0000       2.281403        62.0801 
 210   0.0000       2.317843        63.0717 
 211   0.0000       2.323578        63.2278 
 212   0.0000       2.334719        63.5309 
 213   0.0000       2.358904        64.1890 
 214   0.0000       2.382198        64.8229 
 215   0.0000       2.395489        65.1846 
 216   0.0000       2.416653        65.7605 
 217   0.0000       2.420684        65.8702 
 218   0.0000       2.450526        66.6822 
 219   0.0000       2.455489        66.8173 
 220   0.0000       2.470651        67.2298 
 221   0.0000       2.494411        67.8764 
 222   0.0000       2.501147        68.0597 
 223   0.0000       2.513141        68.3860 
 224   0.0000       2.520969        68.5991 
 225   0.0000       2.536968        69.0344 
 226   0.0000       2.542219        69.1773 
 227   0.0000       2.566286        69.8322 
 228   0.0000       2.570597        69.9495 
 229   0.0000       2.588203        70.4286 
 230   0.0000       2.608345        70.9767 
 231   0.0000       2.636540        71.7439 
 232   0.0000       2.652123        72.1679 
 233   0.0000       2.665584        72.5342 
 234   0.0000       2.688802        73.1660 
 235   0.0000       2.695569        73.3502 
 236   0.0000       2.744435        74.6799 
 237   0.0000       2.759549        75.0912 
 238   0.0000       2.767061        75.2956 
 239   0.0000       2.788254        75.8722 
 240   0.0000       2.811469        76.5040 
 241   0.0000       2.814716        76.5923 
 242   0.0000       2.839918        77.2781 
 243   0.0000       2.860739        77.8447 
 244   0.0000       2.873955        78.2043 
 245   0.0000       2.890020        78.6414 
 246   0.0000       2.897915        78.8563 
 247   0.0000       2.920002        79.4573 
 248   0.0000       2.950856        80.2969 
 249   0.0000       2.957562        80.4794 
 250   0.0000       2.966011        80.7092 
 251   0.0000       2.982074        81.1464 
 252   0.0000       3.000032        81.6350 
 253   0.0000       3.013175        81.9927 
 254   0.0000       3.017490        82.1101 
 255   0.0000       3.020001        82.1784 
 256   0.0000       3.050255        83.0017 
 257   0.0000       3.065438        83.4148 
 258   0.0000       3.078132        83.7602 
 259   0.0000       3.083239        83.8992 
 260   0.0000       3.099243        84.3347 
 261   0.0000       3.134474        85.2934 
 262   0.0000       3.151382        85.7535 
 263   0.0000       3.152282        85.7779 
 264   0.0000       3.166560        86.1665 
 265   0.0000       3.181980        86.5861 
 266   0.0000       3.198468        87.0347 
 267   0.0000       3.215147        87.4886 
 268   0.0000       3.226057        87.7855 
 269   0.0000       3.235353        88.0384 
 270   0.0000       3.262230        88.7698 
 271   0.0000       3.268803        88.9487 
 272   0.0000       3.283557        89.3501 
 273   0.0000       3.300700        89.8166 
 274   0.0000       3.315742        90.2259 
 275   0.0000       3.334227        90.7289 
 276   0.0000       3.338983        90.8584 
 277   0.0000       3.347062        91.0782 
 278   0.0000       3.373718        91.8035 
 279   0.0000       3.378183        91.9250 
 280   0.0000       3.388614        92.2089 
 281   0.0000       3.432336        93.3986 
 282   0.0000       3.436359        93.5081 
 283   0.0000       3.465845        94.3104 
 284   0.0000       3.471025        94.4514 
 285   0.0000       3.493869        95.0730 
 286   0.0000       3.510397        95.5228 
 287   0.0000       3.527943        96.0002 
 288   0.0000       3.572247        97.2058 
 289   0.0000       3.603078        98.0447 
 290   0.0000       3.635977        98.9400 
 291   0.0000       3.678110       100.0865 
 292   0.0000       3.691936       100.4627 
 293   0.0000       3.722005       101.2809 
 294   0.0000       3.741818       101.8201 
 295   0.0000       3.775596       102.7392 
 296   0.0000       3.781278       102.8938 
 297   0.0000       3.816365       103.8486 
 298   0.0000       3.830540       104.2343 
 299   0.0000       3.845484       104.6409 
 300   0.0000       3.898453       106.0823 
 301   0.0000       3.936881       107.1280 
 302   0.0000       3.943880       107.3184 
 303   0.0000       3.959577       107.7456 
 304   0.0000       4.014820       109.2488 
 305   0.0000       4.027494       109.5937 
 306   0.0000       4.038332       109.8886 
 307   0.0000       4.073335       110.8411 
 308   0.0000       4.099906       111.5641 
 309   0.0000       4.138638       112.6181 
 310   0.0000       4.177378       113.6722 
 311   0.0000       4.194256       114.1315 
 312   0.0000       4.224497       114.9544 
 313   0.0000       4.240268       115.3836 
 314   0.0000       4.291306       116.7724 
 315   0.0000       4.307103       117.2022 
 316   0.0000       4.333606       117.9234 
 317   0.0000       4.342618       118.1687 
 318   0.0000       4.395464       119.6066 
 319   0.0000       4.459023       121.3362 
 320   0.0000       4.468056       121.5820 
 321   0.0000       4.524659       123.1222 
 322   0.0000       4.602712       125.2462 
 323   0.0000       4.633014       126.0707 
 324   0.0000       4.643760       126.3631 
 325   0.0000       4.665644       126.9586 
 326   0.0000       4.705614       128.0463 
 327   0.0000       4.733184       128.7965 
 328   0.0000       4.771275       129.8330 
 329   0.0000       4.817352       131.0868 
 330   0.0000       4.865968       132.4097 
 331   0.0000       4.895433       133.2115 
 332   0.0000       4.945557       134.5755 
 333   0.0000       4.979202       135.4910 
 334   0.0000       4.996767       135.9690 
 335   0.0000       5.025354       136.7468 
 336   0.0000       5.041364       137.1825 
 337   0.0000       5.080277       138.2414 
 338   0.0000       5.118763       139.2886 
 339   0.0000       5.131854       139.6448 
 340   0.0000       5.147446       140.0691 
 341   0.0000       5.158580       140.3721 
 342   0.0000       5.192772       141.3025 
 343   0.0000       5.240368       142.5977 
 344   0.0000       5.272165       143.4629 
 345   0.0000       5.332448       145.1033 
 346   0.0000       5.395156       146.8096 
 347   0.0000       5.416502       147.3905 
 348   0.0000       5.500790       149.6841 
 349   0.0000       5.512462       150.0017 
 350   0.0000       5.556751       151.2069 
 351   0.0000       5.568976       151.5396 
 352   0.0000       5.601936       152.4364 
 353   0.0000       5.718684       155.6133 
 354   0.0000       5.800652       157.8438 
 355   0.0000       5.887458       160.2059 
 356   0.0000       5.947884       161.8502 
 357   0.0000       6.029895       164.0818 
 358   0.0000       6.147201       167.2738 
 359   0.0000       6.250679       170.0896 
 360   0.0000       6.268592       170.5771 
 361   0.0000       6.301538       171.4736 
 362   0.0000       6.415392       174.5717 
 363   0.0000       6.460168       175.7901 
 364   0.0000       6.534364       177.8091 
 365   0.0000       6.616962       180.0567 
 366   0.0000       6.698902       182.2864 
 367   0.0000       6.719102       182.8361 
 368   0.0000       6.931981       188.6288 
 369   0.0000       6.933920       188.6816 
 370   0.0000       6.968831       189.6315 
 371   0.0000       7.024298       191.1409 
 372   0.0000      22.018318       599.1489 
 373   0.0000      22.088089       601.0475 
 374   0.0000      22.140105       602.4629 
 375   0.0000      22.442237       610.6843 
 376   0.0000      22.987763       625.5288 
 377   0.0000      23.093048       628.3938 
 378   0.0000      32.008641       870.9994 
 379   0.0000      32.284356       878.5020 
 380   0.0000      43.520695      1184.2583 
 381   0.0000      43.537299      1184.7101 

                    ********************************
                    * MULLIKEN POPULATION ANALYSIS *
                    ********************************

-----------------------
MULLIKEN ATOMIC CHARGES
-----------------------
   0 C :   -0.275319
   1 N :   -0.246040
   2 C :    0.205453
   3 O :   -0.341083
   4 C :    0.084636
   5 C :   -0.368410
   6 N :   -0.245976
   7 C :    0.269529
   8 C :   -0.405506
   9 O :   -0.387131
  10 H :    0.129431
  11 H :    0.134745
  12 H :    0.157978
  13 H :    0.221999
  14 H :    0.100608
  15 H :    0.103301
  16 H :    0.093827
  17 H :    0.165798
  18 H :    0.196793
  19 H :    0.142969
  20 H :    0.118953
  21 H :    0.143444
Sum of atomic charges:    0.0000000

--------------------------------
MULLIKEN REDUCED ORBITAL CHARGES
--------------------------------
  0 C s       :     3.251421  s :     3.251421
      pz      :     1.089907  p :     2.955361
      px      :     0.975388
      py      :     0.890067
      dz2     :     0.007757  d :     0.063259
      dxz     :     0.007718
      dyz     :     0.021052
      dx2y2   :     0.015341
      dxy     :     0.011390
      f0      :     0.000957  f :     0.005278
      f+1     :     0.000287
      f-1     :     0.000656
      f+2     :    -0.000058
      f-2     :     0.001222
      f+3     :     0.000998
      f-3     :     0.001216
  1 N s       :     3.437981  s :     3.437981
      pz      :     1.511627  p :     3.745099
      px      :     1.120001
      py      :     1.113470
      dz2     :     0.004249  d :     0.059212
      dxz     :     0.010893
      dyz     :     0.010266
      dx2y2   :     0.019540
      dxy     :     0.014263
      f0      :     0.000638  f :     0.003747
      f+1     :     0.000528
      f-1     :     0.000383
      f+2     :     0.000422
      f-2     :     0.000416
      f+3     :     0.000577
      f-3     :     0.000783
  2 C s       :     3.107780  s :     3.107780
      pz      :     0.804699  p :     2.416571
      px      :     0.799340
      py      :     0.812531
      dz2     :     0.020664  d :     0.249398
      dxz     :     0.043034
      dyz     :     0.037736
      dx2y2   :     0.073899
      dxy     :     0.074065
      f0      :     0.001829  f :     0.020798
      f+1     :     0.001537
      f-1     :     0.002199
      f+2     :     0.002848
      f-2     :     0.002013
      f+3     :     0.003792
      f-3     :     0.006579
  3 O s       :     3.817832  s :     3.817832
      pz      :     1.420413  p :     4.490979
      px      :     1.675075
      py      :     1.395491
      dz2     :     0.003851  d :     0.030531
      dxz     :     0.002121
      dyz     :     0.008525
      dx2y2   :     0.008021
      dxy     :     0.008013
      f0      :     0.000118  f :     0.001742
      f+1     :     0.000066
      f-1     :     0.000285
      f+2     :     0.000219
      f-2     :     0.000243
      f+3     :     0.000341
      f-3     :     0.000471
  4 C s       :     3.080129  s :     3.080129
      pz      :     0.954067  p :     2.672911
      px      :     0.803291
      py      :     0.915553
      dz2     :     0.043038  d :     0.151467
      dxz     :     0.028324
      dyz     :     0.015152
      dx2y2   :     0.029104
      dxy     :     0.035850
      f0      :     0.001330  f :     0.010856
      f+1     :     0.001466
      f-1     :     0.001246
      f+2     :     0.001299
      f-2     :     0.001408
      f+3     :     0.002000
      f-3     :     0.002107
  5 C s       :     3.259518  s :     3.259518
      pz      :     0.999647  p :     3.059484
      px      :     1.068673
      py      :     0.991164
      dz2     :     0.016547  d :     0.046107
      dxz     :     0.003326
      dyz     :     0.006142
      dx2y2   :     0.006645
      dxy     :     0.013447
      f0      :     0.000315  f :     0.003301
      f+1     :     0.000096
      f-1     :     0.001154
      f+2     :     0.000170
      f-2     :     0.000405
      f+3     :     0.000370
      f-3     :     0.000792
  6 N s       :     3.445037  s :     3.445037
      pz      :     1.511753  p :     3.738172
      px      :     1.084005
      py      :     1.142415
      dz2     :     0.006583  d :     0.058621
      dxz     :     0.014542
      dyz     :     0.005269
      dx2y2   :     0.018434
      dxy     :     0.013792
      f0      :     0.000663  f :     0.004146
      f+1     :     0.000653
      f-1     :     0.000372
      f+2     :     0.000404
      f-2     :     0.000582
      f+3     :     0.000810
      f-3     :     0.000662
  7 C s       :     3.082528  s :     3.082528
      pz      :     0.811907  p :     2.400738
      px      :     0.840236
      py      :     0.748595
      dz2     :     0.025882  d :     0.227758
      dxz     :     0.039492
      dyz     :     0.041071
      dx2y2   :     0.046978
      dxy     :     0.074335
      f0      :     0.001441  f :     0.019447
      f+1     :     0.001185
      f-1     :     0.002833
      f+2     :     0.002419
      f-2     :     0.003007
      f+3     :     0.006000
      f-3     :     0.002562
  8 C s       :     3.229945  s :     3.229945
      pz      :     1.074264  p :     3.125247
      px      :     1.022333
      py      :     1.028651
      dz2     :     0.010359  d :     0.047194
      dxz     :     0.010348
      dyz     :     0.005186
      dx2y2   :     0.015649
      dxy     :     0.005652
      f0      :     0.000220  f :     0.003120
      f+1     :     0.000512
      f-1     :     0.000267
      f+2     :     0.000640
      f-2     :     0.000394
      f+3     :     0.000611
      f-3     :     0.000475
  9 O s       :     3.826687  s :     3.826687
      pz      :     1.424141  p :     4.530102
      px      :     1.773809
      py      :     1.332152
      dz2     :     0.004476  d :     0.028739
      dxz     :     0.001327
      dyz     :     0.008969
      dx2y2   :     0.007406
      dxy     :     0.006561
      f0      :     0.000085  f :     0.001602
      f+1     :     0.000004
      f-1     :     0.000371
      f+2     :     0.000328
      f-2     :     0.000146
      f+3     :     0.000351
      f-3     :     0.000316
 10 H s       :     0.849279  s :     0.849279
      pz      :     0.011168  p :     0.021291
      px      :     0.004403
      py      :     0.005720
 11 H s       :     0.843174  s :     0.843174
      pz      :     0.005679  p :     0.022081
      px      :     0.011722
      py      :     0.004680
 12 H s       :     0.820419  s :     0.820419
      pz      :     0.007357  p :     0.021603
      px      :     0.006372
      py      :     0.007874
 13 H s       :     0.742748  s :     0.742748
      pz      :     0.012279  p :     0.035253
      px      :     0.006522
      py      :     0.016452
 14 H s       :     0.876763  s :     0.876763
      pz      :     0.012716  p :     0.022630
      px      :     0.004900
      py      :     0.005014
 15 H s       :     0.875169  s :     0.875169
      pz      :     0.011176  p :     0.021530
      px      :     0.004685
      py      :     0.005669
 16 H s       :     0.883400  s :     0.883400
      pz      :     0.005173  p :     0.022773
      px      :     0.010551
      py      :     0.007048
 17 H s       :     0.812043  s :     0.812043
      pz      :     0.004501  p :     0.022159
      px      :     0.009781
      py      :     0.007877
 18 H s       :     0.757663  s :     0.757663
      pz      :     0.014054  p :     0.045543
      px      :     0.008097
      py      :     0.023392
 19 H s       :     0.834764  s :     0.834764
      pz      :     0.010747  p :     0.022267
      px      :     0.005651
      py      :     0.005869
 20 H s       :     0.859512  s :     0.859512
      pz      :     0.005374  p :     0.021535
      px      :     0.004622
      py      :     0.011538
 21 H s       :     0.836068  s :     0.836068
      pz      :     0.005790  p :     0.020487
      px      :     0.010162
      py      :     0.004535


                     *******************************
                     * LOEWDIN POPULATION ANALYSIS *
                     *******************************

----------------------
LOEWDIN ATOMIC CHARGES
----------------------
   0 C :   -0.302588
   1 N :    0.100589
   2 C :   -0.465301
   3 O :    0.101760
   4 C :   -0.295691
   5 C :   -0.281927
   6 N :    0.173019
   7 C :   -0.465063
   8 C :   -0.288708
   9 O :    0.030708
  10 H :    0.113200
  11 H :    0.104174
  12 H :    0.146142
  13 H :    0.197391
  14 H :    0.163243
  15 H :    0.136163
  16 H :    0.105589
  17 H :    0.146882
  18 H :    0.166792
  19 H :    0.139531
  20 H :    0.131849
  21 H :    0.142248

-------------------------------
LOEWDIN REDUCED ORBITAL CHARGES
-------------------------------
  0 C s       :     2.844260  s :     2.844260
      pz      :     1.110052  p :     3.116352
      px      :     1.023957
      py      :     0.982344
      dz2     :     0.048982  d :     0.304408
      dxz     :     0.028221
      dyz     :     0.085611
      dx2y2   :     0.074791
      dxy     :     0.066803
      f0      :     0.005006  f :     0.037569
      f+1     :     0.003180
      f-1     :     0.003547
      f+2     :     0.001984
      f-2     :     0.008726
      f+3     :     0.007019
      f-3     :     0.008107
  1 N s       :     2.961135  s :     2.961135
      pz      :     1.379307  p :     3.707971
      px      :     1.189182
      py      :     1.139481
      dz2     :     0.015302  d :     0.215906
      dxz     :     0.030562
      dyz     :     0.032251
      dx2y2   :     0.077476
      dxy     :     0.060315
      f0      :     0.001622  f :     0.014400
      f+1     :     0.001790
      f-1     :     0.000739
      f+2     :     0.001651
      f-2     :     0.001925
      f+3     :     0.002566
      f-3     :     0.004106
  2 C s       :     2.740659  s :     2.740659
      pz      :     0.789508  p :     2.705836
      px      :     0.938280
      py      :     0.978047
      dz2     :     0.085703  d :     0.889244
      dxz     :     0.147102
      dyz     :     0.126631
      dx2y2   :     0.259801
      dxy     :     0.270007
      f0      :     0.007855  f :     0.129561
      f+1     :     0.008231
      f-1     :     0.011659
      f+2     :     0.021073
      f-2     :     0.014306
      f+3     :     0.024618
      f-3     :     0.041820
  3 O s       :     3.390376  s :     3.390376
      pz      :     1.357290  p :     4.429890
      px      :     1.574313
      py      :     1.498286
      dz2     :     0.008172  d :     0.071579
      dxz     :     0.004669
      dyz     :     0.015680
      dx2y2   :     0.022517
      dxy     :     0.020542
      f0      :     0.000513  f :     0.006395
      f+1     :     0.000208
      f-1     :     0.000850
      f+2     :     0.000712
      f-2     :     0.000870
      f+3     :     0.001522
      f-3     :     0.001719
  4 C s       :     2.734987  s :     2.734987
      pz      :     1.008212  p :     2.908318
      px      :     0.894420
      py      :     1.005685
      dz2     :     0.140065  d :     0.578555
      dxz     :     0.098727
      dyz     :     0.082012
      dx2y2   :     0.112372
      dxy     :     0.145378
      f0      :     0.007315  f :     0.073832
      f+1     :     0.009601
      f-1     :     0.007384
      f+2     :     0.011787
      f-2     :     0.010939
      f+3     :     0.013301
      f-3     :     0.013504
  5 C s       :     2.828503  s :     2.828503
      pz      :     1.056271  p :     3.171180
      px      :     1.071396
      py      :     1.043513
      dz2     :     0.076048  d :     0.256514
      dxz     :     0.014708
      dyz     :     0.048850
      dx2y2   :     0.038005
      dxy     :     0.078903
      f0      :     0.001888  f :     0.025730
      f+1     :     0.002595
      f-1     :     0.006579
      f+2     :     0.004615
      f-2     :     0.003286
      f+3     :     0.002391
      f-3     :     0.004376
  6 N s       :     2.910673  s :     2.910673
      pz      :     1.358065  p :     3.668673
      px      :     1.141716
      py      :     1.168893
      dz2     :     0.021115  d :     0.232125
      dxz     :     0.045370
      dyz     :     0.018705
      dx2y2   :     0.084267
      dxy     :     0.062669
      f0      :     0.001679  f :     0.015509
      f+1     :     0.002459
      f-1     :     0.000970
      f+2     :     0.001329
      f-2     :     0.002446
      f+3     :     0.003981
      f-3     :     0.002646
  7 C s       :     2.751585  s :     2.751585
      pz      :     0.823743  p :     2.723160
      px      :     0.958290
      py      :     0.941127
      dz2     :     0.094189  d :     0.867754
      dxz     :     0.131673
      dyz     :     0.156181
      dx2y2   :     0.200883
      dxy     :     0.284828
      f0      :     0.008961  f :     0.122564
      f+1     :     0.007477
      f-1     :     0.013463
      f+2     :     0.017252
      f-2     :     0.018140
      f+3     :     0.039192
      f-3     :     0.018078
  8 C s       :     2.834525  s :     2.834525
      pz      :     1.078427  p :     3.189825
      px      :     1.048267
      py      :     1.063131
      dz2     :     0.043795  d :     0.240409
      dxz     :     0.057644
      dyz     :     0.027683
      dx2y2   :     0.077481
      dxy     :     0.033806
      f0      :     0.002816  f :     0.023950
      f+1     :     0.002919
      f-1     :     0.003452
      f+2     :     0.003096
      f-2     :     0.003031
      f+3     :     0.004473
      f-3     :     0.004163
  9 O s       :     3.430564  s :     3.430564
      pz      :     1.384274  p :     4.470775
      px      :     1.640867
      py      :     1.445634
      dz2     :     0.007728  d :     0.062724
      dxz     :     0.002956
      dyz     :     0.018661
      dx2y2   :     0.018952
      dxy     :     0.014427
      f0      :     0.000449  f :     0.005228
      f+1     :     0.000012
      f-1     :     0.000876
      f+2     :     0.001177
      f-2     :     0.000513
      f+3     :     0.001067
      f-3     :     0.001134
 10 H s       :     0.821989  s :     0.821989
      pz      :     0.035375  p :     0.064812
      px      :     0.013101
      py      :     0.016335
 11 H s       :     0.825515  s :     0.825515
      pz      :     0.018374  p :     0.070311
      px      :     0.036809
      py      :     0.015127
 12 H s       :     0.793635  s :     0.793635
      pz      :     0.021938  p :     0.060224
      px      :     0.017592
      py      :     0.020694
 13 H s       :     0.706434  s :     0.706434
      pz      :     0.034249  p :     0.096175
      px      :     0.016511
      py      :     0.045416
 14 H s       :     0.777304  s :     0.777304
      pz      :     0.032863  p :     0.059453
      px      :     0.012904
      py      :     0.013687
 15 H s       :     0.801416  s :     0.801416
      pz      :     0.030877  p :     0.062421
      px      :     0.013824
      py      :     0.017720
 16 H s       :     0.825455  s :     0.825455
      pz      :     0.016078  p :     0.068956
      px      :     0.033104
      py      :     0.019774
 17 H s       :     0.791230  s :     0.791230
      pz      :     0.012170  p :     0.061888
      px      :     0.027989
      py      :     0.021729
 18 H s       :     0.706181  s :     0.706181
      pz      :     0.041005  p :     0.127027
      px      :     0.020893
      py      :     0.065129
 19 H s       :     0.796869  s :     0.796869
      pz      :     0.031284  p :     0.063600
      px      :     0.015115
      py      :     0.017201
 20 H s       :     0.807922  s :     0.807922
      pz      :     0.014818  p :     0.060229
      px      :     0.012747
      py      :     0.032664
 21 H s       :     0.800679  s :     0.800679
      pz      :     0.017261  p :     0.057073
      px      :     0.027756
      py      :     0.012056


                      *****************************
                      * MAYER POPULATION ANALYSIS *
                      *****************************

  NA   - Mulliken gross atomic population
  ZA   - Total nuclear charge
  QA   - Mulliken gross atomic charge
  VA   - Mayer's total valence
  BVA  - Mayer's bonded valence
  FA   - Mayer's free valence

  ATOM       NA         ZA         QA         VA         BVA        FA
  0 C      6.2753     6.0000    -0.2753     3.8764     3.8764     0.0000
  1 N      7.2460     7.0000    -0.2460     3.1969     3.1969    -0.0000
  2 C      5.7945     6.0000     0.2055     4.2745     4.2745     0.0000
  3 O      8.3411     8.0000    -0.3411     2.1766     2.1766     0.0000
  4 C      5.9154     6.0000     0.0846     3.8016     3.8016    -0.0000
  5 C      6.3684     6.0000    -0.3684     3.8274     3.8274     0.0000
  6 N      7.2460     7.0000    -0.2460     3.2209     3.2209    -0.0000
  7 C      5.7305     6.0000     0.2695     4.2110     4.2110    -0.0000
  8 C      6.4055     6.0000    -0.4055     3.8881     3.8881     0.0000
  9 O      8.3871     8.0000    -0.3871     2.1310     2.1310     0.0000
 10 H      0.8706     1.0000     0.1294     0.9602     0.9602     0.0000
 11 H      0.8653     1.0000     0.1347     0.9642     0.9642     0.0000
 12 H      0.8420     1.0000     0.1580     0.9891     0.9891     0.0000
 13 H      0.7780     1.0000     0.2220     0.9515     0.9515    -0.0000
 14 H      0.8994     1.0000     0.1006     0.9885     0.9885     0.0000
 15 H      0.8967     1.0000     0.1033     0.9968     0.9968    -0.0000
 16 H      0.9062     1.0000     0.0938     0.9863     0.9863    -0.0000
 17 H      0.8342     1.0000     0.1658     0.9928     0.9928     0.0000
 18 H      0.8032     1.0000     0.1968     1.0111     1.0111     0.0000
 19 H      0.8570     1.0000     0.1430     0.9680     0.9680    -0.0000
 20 H      0.8810     1.0000     0.1190     0.9699     0.9699     0.0000
 21 H      0.8566     1.0000     0.1434     0.9714     0.9714    -0.0000

  Mayer bond orders larger than 0.100000
B(  0-C ,  1-N ) :   0.9453 B(  0-C , 10-H ) :   0.9657 B(  0-C , 11-H ) :   0.9619 
B(  0-C , 12-H ) :   0.9497 B(  1-N ,  2-C ) :   1.2763 B(  1-N , 13-H ) :   0.8981 
B(  2-C ,  3-O ) :   1.9365 B(  2-C ,  4-C ) :   0.9521 B(  4-C ,  5-C ) :   0.9437 
B(  4-C ,  6-N ) :   0.9770 B(  4-C , 14-H ) :   0.9128 B(  5-C , 15-H ) :   0.9663 
B(  5-C , 16-H ) :   0.9612 B(  5-C , 17-H ) :   0.9479 B(  6-N ,  7-C ) :   1.2276 
B(  6-N , 18-H ) :   0.8897 B(  7-C ,  8-C ) :   1.0006 B(  7-C ,  9-O ) :   1.9190 
B(  8-C , 19-H ) :   0.9386 B(  8-C , 20-H ) :   0.9616 B(  8-C , 21-H ) :   0.9485 


-------
TIMINGS
-------

Total SCF time: 0 days 0 hours 0 min 4 sec 

Total time                  ....       4.489 sec
Sum of individual times     ....       4.281 sec  ( 95.4%)

Fock matrix formation       ....       3.372 sec  ( 75.1%)
  Split-RI-J                ....       1.189 sec  ( 35.3% of F)
  XC integration            ....       2.131 sec  ( 63.2% of F)
    Basis function eval.    ....       0.424 sec  ( 19.9% of XC)
    Density eval.           ....       0.866 sec  ( 40.7% of XC)
    XC-Functional eval.     ....       0.046 sec  (  2.1% of XC)
    XC-Potential eval.      ....       0.619 sec  ( 29.1% of XC)
Diagonalization             ....       0.302 sec  (  6.7%)
Density matrix formation    ....       0.009 sec  (  0.2%)
Population analysis         ....       0.023 sec  (  0.5%)
Initial guess               ....       0.028 sec  (  0.6%)
Orbital Transformation      ....       0.000 sec  (  0.0%)
Orbital Orthonormalization  ....       0.024 sec  (  0.5%)
DIIS solution               ....       0.145 sec  (  3.2%)
SOSCF solution              ....       0.166 sec  (  3.7%)
Grid generation             ....       0.235 sec  (  5.2%)

Maximum memory used throughout the entire SCF-calculation: 45.1 MB

-------------------------   --------------------
FINAL SINGLE POINT ENERGY      -495.427396744799
-------------------------   --------------------



           ************************************************************
           *        Program running with 8 parallel MPI-processes     *
           *              working on a common directory               *
           ************************************************************
------------------------------------------------------------------------------
                         ORCA SCF GRADIENT CALCULATION
------------------------------------------------------------------------------

Gradient of the Kohn-Sham DFT energy:
Kohn-Sham wavefunction type      ... RKS
Hartree-Fock exchange scaling    ...    0.000
Number of operators              ...    1
Number of atoms                  ...   22
Basis set dimensions             ...  382
Integral neglect threshold       ... 2.5e-11
Integral primitive cutoff        ... 2.5e-12
SHARK Integral package           ... ON

Nuc. rep. gradient       (SHARK) ... done (  0.0 sec)
HCore & Overlap gradient (SHARK) ... done (  0.0 sec)
RI-J gradient            (SHARK) ... done (  0.3 sec)
Exchange-correlation gradient    ... done

------------------
CARTESIAN GRADIENT
------------------

   1   C   :    0.052971095   -0.007022280    0.015873668
   2   N   :   -0.011753368    0.020463484   -0.015770166
   3   C   :   -0.005931332    0.020717349   -0.018804574
   4   O   :    0.005433158   -0.032737067    0.011650634
   5   C   :    0.009371239    0.007290391   -0.004412632
   6   C   :    0.035214956    0.004311840    0.007237737
   7   N   :    0.030186640    0.023960927   -0.001832614
   8   C   :   -0.023183294    0.031924861   -0.015720737
   9   C   :    0.039039814   -0.030315932    0.005701411
  10   O   :    0.010877786   -0.026204705    0.008886186
  11   H   :    0.001290701   -0.005725704   -0.013685517
  12   H   :   -0.033086164    0.009711678    0.013095008
  13   H   :   -0.015463618    0.006180130   -0.010618958
  14   H   :    0.003415547   -0.023178845    0.009783902
  15   H   :   -0.018902079    0.007969065   -0.006727583
  16   H   :   -0.007663036    0.005365015    0.009650952
  17   H   :   -0.028173940    0.012320026   -0.004062741
  18   H   :   -0.012609888   -0.008863797   -0.003742389
  19   H   :    0.000372619   -0.042174865    0.014660871
  20   H   :   -0.003639713    0.011138412    0.004776177
  21   H   :   -0.007415645    0.002764669   -0.002938396
  22   H   :   -0.020351477    0.012105348   -0.003000237

Difference to translation invariance:
           :   -0.0000000000    0.0000000000    0.0000000000

Difference to rotation invariance:
           :    0.0001475521    0.0002562057   -0.0000133983

Norm of the cartesian gradient     ...    0.1461632282
RMS gradient                       ...    0.0179914497
MAX gradient                       ...    0.0529710953

-------
TIMINGS
-------

Total SCF gradient time            ...        1.522 sec

One electron gradient       ....       0.050 sec  (  3.3%)
RI-J Coulomb gradient       ....       0.297 sec  ( 19.5%)
XC gradient                 ....       1.089 sec  ( 71.6%)

Maximum memory used throughout the entire SCFGRAD-calculation: 40.5 MB

                            ***************************************
                            *     ORCA property calculations      *
                            ***************************************

                                    ---------------------
                                    Active property flags
                                    ---------------------
   (+) Dipole Moment


------------------------------------------------------------------------------
                       ORCA ELECTRIC PROPERTIES CALCULATION
------------------------------------------------------------------------------

Dipole Moment Calculation                       ... on
Quadrupole Moment Calculation                   ... off
Polarizability Calculation                      ... off
GBWName                                         ... orca.gbw
Electron density                                ... orca.scfp
The origin for moment calculation is the CENTER OF MASS  = ( 0.054949,  0.056109  0.023215)

-------------
DIPOLE MOMENT
-------------
                                X             Y             Z
Electronic contribution:     -1.61012      -0.01064       1.73774
Nuclear contribution   :      2.91059       0.52900      -1.72887
                        -----------------------------------------
Total Dipole Moment    :      1.30048       0.51836       0.00887
                        -----------------------------------------
Magnitude (a.u.)       :      1.40001
Magnitude (Debye)      :      3.55854



--------------------
Rotational spectrum 
--------------------
 
Rotational constants in cm-1:     0.103933     0.022383     0.019508 
Rotational constants in MHz :  3115.821736   671.028482   584.824284 

 Dipole components along the rotational axes: 
x,y,z [a.u.] :    -1.397354    -0.005333     0.086004 
x,y,z [Debye]:    -3.551793    -0.013556     0.218605 

 

Timings for individual modules:

Sum of individual times         ...        7.129 sec (=   0.119 min)
GTO integral calculation        ...        0.465 sec (=   0.008 min)   6.5 %
SCF iterations                  ...        4.819 sec (=   0.080 min)  67.6 %
SCF Gradient evaluation         ...        1.846 sec (=   0.031 min)  25.9 %
                             ****ORCA TERMINATED NORMALLY****
TOTAL RUN TIME: 0 days 0 hours 0 minutes 7 seconds 548 msec
